
BEGIN_INFO
  Fermi Energy:    -0.755068665
  Shift Range: -1.000000000eV to 0.000000000eV
END_INFO

BEGIN_BLOCK_BANDGRID_3D
band_energies
BANDGRID_3D_BANDS
           2
         141         141           2
    0.000000  0.000000  0.000000
    0.723869  0.000000  0.000000
    0.000000  0.746257  0.000000
    0.000000  0.000000  0.120645
  BAND:    59
       -2.115699532   -2.115699532
       -2.116554195   -2.116554195
       -2.117168891   -2.117168891
       -2.117561373   -2.117561373
       -2.117740985   -2.117740985
       -2.117699971   -2.117699971
       -2.117407504   -2.117407504
       -2.116807204   -2.116807204
       -2.115818012   -2.115818012
       -2.114336671   -2.114336671
       -2.112238442   -2.112238442
       -2.109371593   -2.109371593
       -2.105540904   -2.105540904
       -2.100476636   -2.100476636
       -2.093789964   -2.093789964
       -2.084928996   -2.084928996
       -2.073178337   -2.073178337
       -2.057781599   -2.057781599
       -2.038256590   -2.038256590
       -2.015084278   -2.015084278
       -1.992825342   -1.992825342
       -1.972429897   -1.972429897
       -1.950154077   -1.950154077
       -1.925457147   -1.925457147
       -1.898367583   -1.898367583
       -1.869080693   -1.869080693
       -1.837870626   -1.837870626
       -1.805033897   -1.805033897
       -1.770847216   -1.770847216
       -1.735542250   -1.735542250
       -1.699298280   -1.699298280
       -1.662250259   -1.662250259
       -1.624507079   -1.624507079
       -1.586173395   -1.586173395
       -1.547368188   -1.547368188
       -1.508234416   -1.508234416
       -1.468936748   -1.468936748
       -1.429647891   -1.429647891
       -1.390527716   -1.390527716
       -1.351702058   -1.351702058
       -1.313248826   -1.313248826
       -1.275197545   -1.275197545
       -1.237544892   -1.237544892
       -1.200284187   -1.200284187
       -1.163442251   -1.163442251
       -1.127113992   -1.127113992
       -1.091484581   -1.091484581
       -1.056831842   -1.056831842
       -1.023507405   -1.023507405
       -0.991902612   -0.991902612
       -0.962411459   -0.962411459
       -0.935405105   -0.935405105
       -0.911228970   -0.911228970
       -0.890225202   -0.890225202
       -0.873417530   -0.873417530
       -0.874326713   -0.874326713
       -0.880598492   -0.880598492
       -0.892131795   -0.892131795
       -0.908722189   -0.908722189
       -0.930024248   -0.930024248
       -0.955587675   -0.955587675
       -0.984898916   -0.984898916
       -1.017419600   -1.017419600
       -1.052617291   -1.052617291
       -1.089987448   -1.089987448
       -1.129066244   -1.129066244
       -1.169429147   -1.169429147
       -1.210633002   -1.210633002
       -1.251095627   -1.251095627
       -1.235802665   -1.235802665
       -1.194437267   -1.194437267
       -1.233636487   -1.233636487
       -1.251132698   -1.251132698
       -1.210815145   -1.210815145
       -1.169602171   -1.169602171
       -1.129234996   -1.129234996
       -1.090161650   -1.090161650
       -1.052806533   -1.052806533
       -1.017632197   -1.017632197
       -0.985141977   -0.985141977
       -0.955867984   -0.955867984
       -0.930349492   -0.930349492
       -0.909101866   -0.909101866
       -0.892577202   -0.892577202
       -0.881121572   -0.881121572
       -0.874938469   -0.874938469
       -0.877335381   -0.877335381
       -0.894850980   -0.894850980
       -0.915910050   -0.915910050
       -0.940130642   -0.940130642
       -0.967171667   -0.967171667
       -0.996689204   -0.996689204
       -1.028314846   -1.028314846
       -1.061658462   -1.061658462
       -1.096332983   -1.096332983
       -1.131990509   -1.131990509
       -1.168355584   -1.168355584
       -1.205243634   -1.205243634
       -1.242558656   -1.242558656
       -1.280271567   -1.280271567
       -1.318386349   -1.318386349
       -1.356903920   -1.356903920
       -1.395793171   -1.395793171
       -1.434975619   -1.434975619
       -1.474325722   -1.474325722
       -1.513684348   -1.513684348
       -1.552879412   -1.552879412
       -1.591746184   -1.591746184
       -1.630140497   -1.630140497
       -1.667940713   -1.667940713
       -1.705037890   -1.705037890
       -1.741317139   -1.741317139
       -1.776635751   -1.776635751
       -1.810804997   -1.810804997
       -1.843582449   -1.843582449
       -1.874680256   -1.874680256
       -1.903792003   -1.903792003
       -1.930636476   -1.930636476
       -1.955012265   -1.955012265
       -1.976862169   -1.976862169
       -1.996431317   -1.996431317
       -2.015622998   -2.015622998
       -2.037156937   -2.037156937
       -2.056104593   -2.056104593
       -2.071172975   -2.071172975
       -2.082759827   -2.082759827
       -2.091570762   -2.091570762
       -2.098276813   -2.098276813
       -2.103399138   -2.103399138
       -2.107308334   -2.107308334
       -2.110263780   -2.110263780
       -2.112454331   -2.112454331
       -2.114027162   -2.114027162
       -2.115103356   -2.115103356
       -2.115783245   -2.115783245
       -2.116145823   -2.116145823
       -2.116246407   -2.116246407
       -2.116115773   -2.116115773
       -2.115762602   -2.115762602
       -2.115182431   -2.115182431
       -2.115699532   -2.115699532
       -2.115674330   -2.115674330
       -2.116532139   -2.116532139
       -2.117143402   -2.117143402
       -2.117524845   -2.117524845
       -2.117685339   -2.117685339
       -2.117616922   -2.117616922
       -2.117288597   -2.117288597
       -2.116643495   -2.116643495
       -2.115599305   -2.115599305
       -2.114050276   -2.114050276
       -2.111867495   -2.111867495
       -2.108893026   -2.108893026
       -2.104923271   -2.104923271
       -2.099678218   -2.099678218
       -2.092758372   -2.092758372
       -2.083605048   -2.083605048
       -2.071508910   -2.071508910
       -2.055744297   -2.055744297
       -2.035893104   -2.035893104
       -2.012611218   -2.012611218
       -1.990678232   -1.990678232
       -1.970134816   -1.970134816
       -1.947641385   -1.947641385
       -1.922742839   -1.922742839
       -1.895481298   -1.895481298
       -1.866056823   -1.866056823
       -1.834744580   -1.834744580
       -1.801840119   -1.801840119
       -1.767618572   -1.767618572
       -1.732310300   -1.732310300
       -1.696093847   -1.696093847
       -1.659103772   -1.659103772
       -1.621448449   -1.621448449
       -1.583231439   -1.583231439
       -1.544569793   -1.544569793
       -1.505603727   -1.505603727
       -1.466494654   -1.466494654
       -1.427412106   -1.427412106
       -1.388513743   -1.388513743
       -1.349925215   -1.349925215
       -1.311727231   -1.311727231
       -1.273955527   -1.273955527
       -1.236615906   -1.236615906
       -1.199712149   -1.199712149
       -1.163280433   -1.163280433
       -1.127421195   -1.127421195
       -1.092319046   -1.092319046
       -1.058244152   -1.058244152
       -1.025534131   -1.025534131
       -0.994562500   -0.994562500
       -0.965705348   -0.965705348
       -0.939319503   -0.939319503
       -0.915741545   -0.915741545
       -0.895308850   -0.895308850
       -0.878876702   -0.878876702
       -0.880154867   -0.880154867
       -0.886685790   -0.886685790
       -0.898346941   -0.898346941
       -0.914914254   -0.914914254
       -0.936031955   -0.936031955
       -0.961253561   -0.961253561
       -0.990084590   -0.990084590
       -1.022017664   -1.022017664
       -1.056556790   -1.056556790
       -1.093232031   -1.093232031
       -1.131606120   -1.131606120
       -1.171268240   -1.171268240
       -1.211769543   -1.211769543
       -1.251444357   -1.251444357
       -1.235847854   -1.235847854
       -1.199265770   -1.199265770
       -1.233756945   -1.233756945
       -1.251582808   -1.251582808
       -1.211989282   -1.211989282
       -1.171458425   -1.171458425
       -1.131768510   -1.131768510
       -1.093373839   -1.093373839
       -1.056690686   -1.056690686
       -1.022160594   -1.022160594
       -0.990255130   -0.990255130
       -0.961468873   -0.961468873
       -0.936305525   -0.936305525
       -0.915255253   -0.915255253
       -0.898761261   -0.898761261
       -0.887178039   -0.887178039
       -0.880731236   -0.880731236
       -0.882917174   -0.882917174
       -0.899901648   -0.899901648
       -0.920407921   -0.920407921
       -0.944048264   -0.944048264
       -0.970479801   -0.970479801
       -0.999363730   -0.999363730
       -1.030345878   -1.030345878
       -1.063057333   -1.063057333
       -1.097134276   -1.097134276
       -1.132248457   -1.132248457
       -1.168136136   -1.168136136
       -1.204614673   -1.204614673
       -1.241581137   -1.241581137
       -1.278993711   -1.278993711
       -1.316841913   -1.316841913
       -1.355114231   -1.355114231
       -1.393771620   -1.393771620
       -1.432732844   -1.432732844
       -1.471873916   -1.471873916
       -1.511039749   -1.511039749
       -1.550062861   -1.550062861
       -1.588782234   -1.588782234
       -1.627055864   -1.627055864
       -1.664762871   -1.664762871
       -1.701794394   -1.701794394
       -1.738035965   -1.738035965
       -1.773346516   -1.773346516
       -1.807540544   -1.807540544
       -1.840379927   -1.840379927
       -1.871580803   -1.871580803
       -1.900838392   -1.900838392
       -1.927868669   -1.927868669
       -1.952461336   -1.952461336
       -1.974541557   -1.974541557
       -1.994304628   -1.994304628
       -2.013333750   -2.013333750
       -2.034812202   -2.034812202
       -2.054074783   -2.054074783
       -2.069505307   -2.069505307
       -2.081432104   -2.081432104
       -2.090532015   -2.090532015
       -2.097470136   -2.097470136
       -2.102773592   -2.102773592
       -2.106822797   -2.106822797
       -2.109886774   -2.109886774
       -2.112162362   -2.112162362
       -2.113802752   -2.113802752
       -2.114933231   -2.114933231
       -2.115656857   -2.115656857
       -2.116054260   -2.116054260
       -2.116181692   -2.116181692
       -2.116070492   -2.116070492
       -2.115729792   -2.115729792
       -2.115156443   -2.115156443
       -2.115674330   -2.115674330
       -2.115593315   -2.115593315
       -2.116457368   -2.116457368
       -2.117056756   -2.117056756
       -2.117404697   -2.117404697
       -2.117508094   -2.117508094
       -2.117357560   -2.117357560
       -2.116920711   -2.116920711
       -2.116138477   -2.116138477
       -2.114924359   -2.114924359
       -2.113165034   -2.113165034
       -2.110719226   -2.110719226
       -2.107410683   -2.107410683
       -2.103011029   -2.103011029
       -2.097210246   -2.097210246
       -2.089579095   -2.089579095
       -2.079543940   -2.079543940
       -2.066422502   -2.066422502
       -2.049589086   -2.049589086
       -2.028823806   -2.028823806
       -2.005419794   -2.005419794
       -1.984269662   -1.984269662
       -1.963246802   -1.963246802
       -1.940123176   -1.940123176
       -1.914641143   -1.914641143
       -1.886884742   -1.886884742
       -1.857069708   -1.857069708
       -1.825474208   -1.825474208
       -1.792389587   -1.792389587
       -1.758084150   -1.758084150
       -1.722782240   -1.722782240
       -1.686658857   -1.686658857
       -1.649847400   -1.649847400
       -1.612456098   -1.612456098
       -1.574587530   -1.574587530
       -1.536355312   -1.536355312
       -1.497892969   -1.497892969
       -1.459352351   -1.459352351
       -1.420892362   -1.420892362
       -1.382662145   -1.382662145
       -1.344784917   -1.344784917
       -1.307348640   -1.307348640
       -1.270407653   -1.270407653
       -1.233996145   -1.233996145
       -1.198150825   -1.198150825
       -1.162937277   -1.162937277
       -1.128472884   -1.128472884
       -1.094939557   -1.094939557
       -1.062582158   -1.062582158
       -1.031693225   -1.031693225
       -1.002589925   -1.002589925
       -0.975592713   -0.975592713
       -0.951014808   -0.951014808
       -0.929166807   -0.929166807
       -0.910373464   -0.910373464
       -0.895136507   -0.895136507
       -0.897331834   -0.897331834
       -0.904569338   -0.904569338
       -0.916557881   -0.916557881
       -0.933025337   -0.933025337
       -0.953592928   -0.953592928
       -0.977827350   -0.977827350
       -1.005286176   -1.005286176
       -1.035544942   -1.035544942
       -1.068205138   -1.068205138
       -1.102889734   -1.102889734
       -1.139232951   -1.139232951
       -1.176861121   -1.176861121
       -1.215312591   -1.215312591
       -1.252743867   -1.252743867
       -1.236352022   -1.236352022
       -1.205676561   -1.205676561
       -1.234333693   -1.234333693
       -1.252920009   -1.252920009
       -1.215565079   -1.215565079
       -1.177070783   -1.177070783
       -1.139396198   -1.139396198
       -1.103010711   -1.103010711
       -1.068297774   -1.068297774
       -1.035631533   -1.035631533
       -1.005392971   -1.005392971
       -0.977978971   -0.977978971
       -0.953807775   -0.953807775
       -0.933313709   -0.933313709
       -0.916923346   -0.916923346
       -0.905012606   -0.905012606
       -0.897857227   -0.897857227
       -0.899460367   -0.899460367
       -0.914916258   -0.914916258
       -0.933796204   -0.933796204
       -0.955719019   -0.955719019
       -0.980350098   -0.980350098
       -1.007374180   -1.007374180
       -1.036480610   -1.036480610
       -1.067358237   -1.067358237
       -1.099703075   -1.099703075
       -1.133235573   -1.133235573
       -1.167719894   -1.167719894
       -1.202976985   -1.202976985
       -1.238886095   -1.238886095
       -1.275373920   -1.275373920
       -1.312394618   -1.312394618
       -1.349906370   -1.349906370
       -1.387850631   -1.387850631
       -1.426139129   -1.426139129
       -1.464651267   -1.464651267
       -1.503241599   -1.503241599
       -1.541753977   -1.541753977
       -1.580036914   -1.580036914
       -1.617954400   -1.617954400
       -1.655388044   -1.655388044
       -1.692229445   -1.692229445
       -1.728364797   -1.728364797
       -1.763656103   -1.763656103
       -1.797924561   -1.797924561
       -1.830941814   -1.830941814
       -1.862434048   -1.862434048
       -1.892102142   -1.892102142
       -1.919657913   -1.919657913
       -1.944872320   -1.944872320
       -1.967631268   -1.967631268
       -1.988029591   -1.988029591
       -2.006969829   -2.006969829
       -2.027971996   -2.027971996
       -2.048057223   -2.048057223
       -2.064522445   -2.064522445
       -2.077444254   -2.077444254
       -2.087402534   -2.087402534
       -2.095036521   -2.095036521
       -2.100886153   -2.100886153
       -2.105358898   -2.105358898
       -2.108751885   -2.108751885
       -2.111285790   -2.111285790
       -2.113131913   -2.113131913
       -2.114428133   -2.114428133
       -2.115285506   -2.115285506
       -2.115789271   -2.115789271
       -2.115998151   -2.115998151
       -2.115944926   -2.115944926
       -2.115640119   -2.115640119
       -2.115085739   -2.115085739
       -2.115593315   -2.115593315
       -2.115449086   -2.115449086
       -2.116323432   -2.116323432
       -2.116904247   -2.116904247
       -2.117198334   -2.117198334
       -2.117208241   -2.117208241
       -2.116920877   -2.116920877
       -2.116300249   -2.116300249
       -2.115282601   -2.115282601
       -2.113773833   -2.113773833
       -2.111647786   -2.111647786
       -2.108742682   -2.108742682
       -2.104852130   -2.104852130
       -2.099707609   -2.099707609
       -2.092952558   -2.092952558
       -2.084117243   -2.084117243
       -2.072621506   -2.072621506
       -2.057854110   -2.057854110
       -2.039378523   -2.039378523
       -2.017370208   -2.017370208
       -1.994535222   -1.994535222
       -1.973789385   -1.973789385
       -1.951847856   -1.951847856
       -1.927724691   -1.927724691
       -1.901343123   -1.901343123
       -1.872838526   -1.872838526
       -1.842444736   -1.842444736
       -1.810439761   -1.810439761
       -1.777104944   -1.777104944
       -1.742696024   -1.742696024
       -1.707427524   -1.707427524
       -1.671469895   -1.671469895
       -1.634956964   -1.634956964
       -1.597999964   -1.597999964
       -1.560703639   -1.560703639
       -1.523179718   -1.523179718
       -1.485553876   -1.485553876
       -1.447964383   -1.447964383
       -1.410553630   -1.410553630
       -1.373456441   -1.373456441
       -1.336790293   -1.336790293
       -1.300651654   -1.300651654
       -1.265120277   -1.265120277
       -1.230270471   -1.230270471
       -1.196186177   -1.196186177
       -1.162975534   -1.162975534
       -1.130780622   -1.130780622
       -1.099779317   -1.099779317
       -1.070178790   -1.070178790
       -1.042203613   -1.042203613
       -1.016084366   -1.016084366
       -0.992053166   -0.992053166
       -0.970349287   -0.970349287
       -0.951232110   -0.951232110
       -0.934993131   -0.934993131
       -0.921984167   -0.921984167
       -0.925076543   -0.925076543
       -0.933284746   -0.933284746
       -0.945671894   -0.945671894
       -0.961917680   -0.961917680
       -0.981621161   -0.981621161
       -1.004364300   -1.004364300
       -1.029763645   -1.029763645
       -1.057493901   -1.057493901
       -1.087281439   -1.087281439
       -1.118877476   -1.118877476
       -1.152023205   -1.152023205
       -1.186407240   -1.186407240
       -1.221557110   -1.221557110
       -1.255396653   -1.255396653
       -1.238157194   -1.238157194
       -1.213365279   -1.213365279
       -1.236198873   -1.236198873
       -1.255468722   -1.255468722
       -1.221815168   -1.221815168
       -1.186625934   -1.186625934
       -1.152189387   -1.152189387
       -1.118991646   -1.118991646
       -1.087356288   -1.087356288
       -1.057552136   -1.057552136
       -1.029833085   -1.029833085
       -1.004471764   -1.004471764
       -0.981787295   -0.981787295
       -0.962154536   -0.962154536
       -0.945983984   -0.945983984
       -0.933673128   -0.933673128
       -0.925547444   -0.925547444
       -0.926354364   -0.926354364
       -0.939470647   -0.939470647
       -0.955800797   -0.955800797
       -0.974996621   -0.974996621
       -0.996755972   -0.996755972
       -1.020814469   -1.020814469
       -1.046935396   -1.046935396
       -1.074896156   -1.074896156
       -1.104479675   -1.104479675
       -1.135474681   -1.135474681
       -1.167683226   -1.167683226
       -1.200930358   -1.200930358
       -1.235070610   -1.235070610
       -1.269988117   -1.269988117
       -1.305589911   -1.305589911
       -1.341794320   -1.341794320
       -1.378517775   -1.378517775
       -1.415663887   -1.415663887
       -1.453118035   -1.453118035
       -1.490749027   -1.490749027
       -1.528416825   -1.528416825
       -1.565982851   -1.565982851
       -1.603318228   -1.603318228
       -1.640306024   -1.640306024
       -1.676835880   -1.676835880
       -1.712792109   -1.712792109
       -1.748038430   -1.748038430
       -1.782403613   -1.782403613
       -1.815672570   -1.815672570
       -1.847587188   -1.847587188
       -1.877860238   -1.877860238
       -1.906203593   -1.906203593
       -1.932368595   -1.932368595
       -1.956194119   -1.956194119
       -1.977670280   -1.977670280
       -1.997171130   -1.997171130
       -2.017114156   -2.017114156
       -2.038116129   -2.038116129
       -2.056159927   -2.056159927
       -2.070678354   -2.070678354
       -2.082055236   -2.082055236
       -2.090862397   -2.090862397
       -2.097644908   -2.097644908
       -2.102847248   -2.102847248
       -2.106810215   -2.106810215
       -2.109793120   -2.109793120
       -2.111997013   -2.111997013
       -2.113580523   -2.113580523
       -2.114667963   -2.114667963
       -2.115352449   -2.115352449
       -2.115697348   -2.115697348
       -2.115738683   -2.115738683
       -2.115490288   -2.115490288
       -2.114962154   -2.114962154
       -2.115449086   -2.115449086
       -2.115230858   -2.115230858
       -2.116120504   -2.116120504
       -2.116677583   -2.116677583
       -2.116899164   -2.116899164
       -2.116779927   -2.116779927
       -2.116299415   -2.116299415
       -2.115414415   -2.115414415
       -2.114052817   -2.114052817
       -2.112108653   -2.112108653
       -2.109437162   -2.109437162
       -2.105847795   -2.105847795
       -2.101092808   -2.101092808
       -2.094850727   -2.094850727
       -2.086709286   -2.086709286
       -2.076163906   -2.076163906
       -2.062663552   -2.062663552
       -2.045742651   -2.045742651
       -2.025282338   -2.025282338
       -2.002358857   -2.002358857
       -1.980757671   -1.980757671
       -1.959332597   -1.959332597
       -1.936068952   -1.936068952
       -1.910661591   -1.910661591
       -1.883162774   -1.883162774
       -1.853753516   -1.853753516
       -1.822679638   -1.822679638
       -1.790211318   -1.790211318
       -1.756612706   -1.756612706
       -1.722121882   -1.722121882
       -1.686941396   -1.686941396
       -1.651238103   -1.651238103
       -1.615149887   -1.615149887
       -1.578796301   -1.578796301
       -1.542289856   -1.542289856
       -1.505744800   -1.505744800
       -1.469281072   -1.469281072
       -1.433022865   -1.433022865
       -1.397093521   -1.397093521
       -1.361610141   -1.361610141
       -1.326681436   -1.326681436
       -1.292410657   -1.292410657
       -1.258902915   -1.258902915
       -1.226274093   -1.226274093
       -1.194657691   -1.194657691
       -1.164206542   -1.164206542
       -1.135087917   -1.135087917
       -1.107472889   -1.107472889
       -1.081523415   -1.081523415
       -1.057382907   -1.057382907
       -1.035176430   -1.035176430
       -1.015023767   -1.015023767
       -0.997062309   -0.997062309
       -0.981469806   -0.981469806
       -0.968473831   -0.968473831
       -0.958348576   -0.958348576
       -0.962249746   -0.962249746
       -0.971488996   -0.971488996
       -0.984209899   -0.984209899
       -1.000067735   -1.000067735
       -1.018653714   -1.018653714
       -1.039564681   -1.039564681
       -1.062463003   -1.062463003
       -1.087105091   -1.087105091
       -1.113330965   -1.113330965
       -1.141022000   -1.141022000
       -1.170040768   -1.170040768
       -1.200156556   -1.200156556
       -1.230895534   -1.230895534
       -1.259966662   -1.259966662
       -1.242421408   -1.242421408
       -1.223242444   -1.223242444
       -1.240526734   -1.240526734
       -1.259706974   -1.259706974
       -1.231116072   -1.231116072
       -1.200365668   -1.200365668
       -1.170208221   -1.170208221
       -1.141143319   -1.141143319
       -1.113414874   -1.113414874
       -1.087169651   -1.087169651
       -1.062531286   -1.062531286
       -1.039659906   -1.039659906
       -1.018795139   -1.018795139
       -1.000268531   -1.000268531
       -0.984477640   -0.984477640
       -0.971828733   -0.971828733
       -0.962673888   -0.962673888
       -0.962653287   -0.962653287
       -0.972870532   -0.972870532
       -0.985954217   -0.985954217
       -1.001621241   -1.001621241
       -1.019635843   -1.019635843
       -1.039817033   -1.039817033
       -1.062030165   -1.062030165
       -1.086163433   -1.086163433
       -1.112102503   -1.112102503
       -1.139714208   -1.139714208
       -1.168843479   -1.168843479
       -1.199321264   -1.199321264
       -1.230977640   -1.230977640
       -1.263654123   -1.263654123
       -1.297210927   -1.297210927
       -1.331527419   -1.331527419
       -1.366496498   -1.366496498
       -1.402015657   -1.402015657
       -1.437978548   -1.437978548
       -1.474270378   -1.474270378
       -1.510768527   -1.510768527
       -1.547347097   -1.547347097
       -1.583882211   -1.583882211
       -1.620254548   -1.620254548
       -1.656346966   -1.656346966
       -1.692037127   -1.692037127
       -1.727186826   -1.727186826
       -1.761630810   -1.761630810
       -1.795168415   -1.795168415
       -1.827561480   -1.827561480
       -1.858541728   -1.858541728
       -1.887829650   -1.887829650
       -1.915164666   -1.915164666
       -1.940343669   -1.940343669
       -1.963267256   -1.963267256
       -1.984031689   -1.984031689
       -2.003510923   -2.003510923
       -2.024478155   -2.024478155
       -2.044359391   -2.044359391
       -2.060967370   -2.060967370
       -2.074291866   -2.074291866
       -2.084761729   -2.084761729
       -2.092894825   -2.092894825
       -2.099168159   -2.099168159
       -2.103975089   -2.103975089
       -2.107625768   -2.107625768
       -2.110361739   -2.110361739
       -2.112370311   -2.112370311
       -2.113794518   -2.113794518
       -2.114739268   -2.114739268
       -2.115275836   -2.115275836
       -2.115446705   -2.115446705
       -2.115272389   -2.115272389
       -2.114773156   -2.114773156
       -2.115230858   -2.115230858
       -2.114925765   -2.114925765
       -2.115835494   -2.115835494
       -2.116363329   -2.116363329
       -2.116492979   -2.116492979
       -2.116206765   -2.116206765
       -2.115471835   -2.115471835
       -2.114232623   -2.114232623
       -2.112403492   -2.112403492
       -2.109861015   -2.109861015
       -2.106435074   -2.106435074
       -2.101897830   -2.101897830
       -2.095950565   -2.095950565
       -2.088211995   -2.088211995
       -2.078219430   -2.078219430
       -2.065465260   -2.065465260
       -2.049496956   -2.049496956
       -2.030105866   -2.030105866
       -2.007787451   -2.007787451
       -1.985340392   -1.985340392
       -1.963851902   -1.963851902
       -1.940970806   -1.940970806
       -1.916108105   -1.916108105
       -1.889246083   -1.889246083
       -1.860524406   -1.860524406
       -1.830156082   -1.830156082
       -1.798388287   -1.798388287
       -1.765474813   -1.765474813
       -1.731656855   -1.731656855
       -1.697152022   -1.697152022
       -1.662150753   -1.662150753
       -1.626818390   -1.626818390
       -1.591300705   -1.591300705
       -1.555730589   -1.555730589
       -1.520233857   -1.520233857
       -1.484932626   -1.484932626
       -1.449945730   -1.449945730
       -1.415386962   -1.415386962
       -1.381363275   -1.381363275
       -1.347975526   -1.347975526
       -1.315323413   -1.315323413
       -1.283514201   -1.283514201
       -1.252672453   -1.252672453
       -1.222946629   -1.222946629
       -1.194508659   -1.194508659
       -1.167544384   -1.167544384
       -1.142235698   -1.142235698
       -1.118738477   -1.118738477
       -1.097163303   -1.097163303
       -1.077567297   -1.077567297
       -1.059963522   -1.059963522
       -1.044348461   -1.044348461
       -1.030739412   -1.030739412
       -1.019206473   -1.019206473
       -1.009883062   -1.009883062
       -1.002951570   -1.002951570
       -1.007524412   -1.007524412
       -1.017708584   -1.017708584
       -1.030609653   -1.030609653
       -1.045890160   -1.045890160
       -1.063155717   -1.063155717
       -1.082022625   -1.082022625
       -1.102183017   -1.102183017
       -1.123442718   -1.123442718
       -1.145717582   -1.145717582
       -1.168988214   -1.168988214
       -1.193222689   -1.193222689
       -1.218270254   -1.218270254
       -1.243668112   -1.243668112
       -1.267064686   -1.267064686
       -1.250362713   -1.250362713
       -1.236314893   -1.236314893
       -1.248565216   -1.248565216
       -1.266174545   -1.266174545
       -1.243797108   -1.243797108
       -1.218445437   -1.218445437
       -1.193384974   -1.193384974
       -1.169125327   -1.169125327
       -1.145831544   -1.145831544
       -1.123542944   -1.123542944
       -1.102282967   -1.102282967
       -1.082137233   -1.082137233
       -1.063299419   -1.063299419
       -1.046075812   -1.046075812
       -1.030848577   -1.030848577
       -1.018012162   -1.018012162
       -1.007917002   -1.007917002
       -1.007167987   -1.007167987
       -1.014184046   -1.014184046
       -1.023586846   -1.023586846
       -1.035185776   -1.035185776
       -1.048843231   -1.048843231
       -1.064488746   -1.064488746
       -1.082108205   -1.082108205
       -1.101710711   -1.101710711
       -1.123289413   -1.123289413
       -1.146792254   -1.146792254
       -1.172111403   -1.172111403
       -1.199091195   -1.199091195
       -1.227548078   -1.227548078
       -1.257293896   -1.257293896
       -1.288154992   -1.288154992
       -1.319982539   -1.319982539
       -1.352653028   -1.352653028
       -1.386060990   -1.386060990
       -1.420108186   -1.420108186
       -1.454693839   -1.454693839
       -1.489709102   -1.489709102
       -1.525036436   -1.525036436
       -1.560552224   -1.560552224
       -1.596129785   -1.596129785
       -1.631640247   -1.631640247
       -1.666950019   -1.666950019
       -1.701915055   -1.701915055
       -1.736373300   -1.736373300
       -1.770137489   -1.770137489
       -1.802991018   -1.802991018
       -1.834689642   -1.834689642
       -1.864971355   -1.864971355
       -1.893575494   -1.893575494
       -1.920270234   -1.920270234
       -1.944886825   -1.944886825
       -1.967367396   -1.967367396
       -1.987914387   -1.987914387
       -2.007988551   -2.007988551
       -2.029161636   -2.029161636
       -2.048141891   -2.048141891
       -2.063867608   -2.063867608
       -2.076484455   -2.076484455
       -2.086416869   -2.086416869
       -2.094146332   -2.094146332
       -2.100114713   -2.100114713
       -2.104689593   -2.104689593
       -2.108161878   -2.108161878
       -2.110755319   -2.110755319
       -2.112637774   -2.112637774
       -2.113931000   -2.113931000
       -2.114718946   -2.114718946
       -2.115055450   -2.115055450
       -2.114972617   -2.114972617
       -2.114503962   -2.114503962
       -2.114925765   -2.114925765
       -2.114519337   -2.114519337