
BEGIN_INFO
  Fermi Energy:    -0.755068665
  Shift Range: -1.000000000eV to 0.000000000eV
END_INFO

BEGIN_BLOCK_BANDGRID_3D
band_energies
BANDGRID_3D_BANDS
           2
         141         141           2
    0.000000  0.000000  0.000000
    0.723869  0.000000  0.000000
    0.000000  0.746257  0.000000
    0.000000  0.000000  0.120645
  BAND:     1
        0.000000000    0.000000000
        0.000000000    0.000000000
        0.000000000    0.000000000
        0.000000000    0.000000000
        0.000000000    0.000000000
        0.000000000    0.000000000
        0.000000000    0.000000000
        0.000000000    0.000000000
        0.000000000    0.000000000
        0.000000000    0.000000000
        0.000000000    0.000000000
        0.000000000    0.000000000
        0.000000000    0.000000000
        0.000000000    0.000000000
        0.000000000    0.000000000
        0.000000000    0.000000000
        0.000000000    0.000000000
        0.000000000    0.000000000
        0.000000000    0.000000000
        0.000000000    0.000000000
        0.000000000    0.000000000
        0.000000000    0.000000000
        0.000000000    0.000000000
        0.000000000    0.000000000
        0.000000000    0.000000000
        0.000000000    0.000000000
        0.000000000    0.000000000
        0.000000000    0.000000000
        0.000000000    0.000000000
        0.000000000    0.000000000
        0.000000000    0.000000000
        0.000000000    0.000000000
        0.000000000    0.000000000
        0.000000000    0.000000000
        0.000000000    0.000000000
        0.000000000    0.000000000
        0.000000000    0.000000000
        0.000000001    0.000000001
        0.000000034    0.000000034
        0.000001219    0.000001219
        0.000029197    0.000029197
        0.000473736    0.000473736
        0.005270511    0.005270511
        0.040620056    0.040620056
        0.220112993    0.220112993
        0.859115896    0.859115896
        2.501556771    2.501556771
        5.679872347    5.679872347
       10.566445739   10.566445739
       16.915748578   16.915748578
       24.190768071   24.190768071
       31.585699412   31.585699412
       38.833563500   38.833563500
       46.469382994   46.469382994
       54.468740017   54.468740017
       62.111299072   62.111299072
       68.307689182   68.307689182
       71.735376438   71.735376438
       71.453163536   71.453163536
       67.148073534   67.148073534
       58.633851135   58.633851135
       47.152929062   47.152929062
       35.729756416   35.729756416
       25.804331767   25.804331767
       16.635176453   16.635176453
        8.699358994    8.699358994
        3.447541219    3.447541219
        0.993269274    0.993269274
        0.203634687    0.203634687
        0.031126560    0.031126560
        0.001837313    0.001837313
        0.028440020    0.028440020
        0.182100293    0.182100293
        0.899810903    0.899810903
        3.186239346    3.186239346
        8.218633912    8.218633912
       16.043281887   16.043281887
       25.261358767   25.261358767
       35.212367538   35.212367538
       46.569695245   46.569695245
       57.970813356   57.970813356
       66.389674865   66.389674865
       70.616166467   70.616166467
       70.894040141   70.894040141
       67.545425929   67.545425929
       61.472186086   61.472186086
       53.949051968   53.949051968
       46.057643548   46.057643548
       38.491374556   38.491374556
       31.176330506   31.176330506
       23.635692180   23.635692180
       16.368330119   16.368330119
       10.176408230   10.176408230
        5.455806976    5.455806976
        2.390576845    2.390576845
        0.813153591    0.813153591
        0.205522355    0.205522355
        0.037313997    0.037313997
        0.004754549    0.004754549
        0.000418973    0.000418973
        0.000025263    0.000025263
        0.000001029    0.000001029
        0.000000028    0.000000028
        0.000000000    0.000000000
        0.000000000    0.000000000
        0.000000000    0.000000000
        0.000000000    0.000000000
        0.000000000    0.000000000
        0.000000000    0.000000000
        0.000000000    0.000000000
        0.000000000    0.000000000
        0.000000000    0.000000000
        0.000000000    0.000000000
        0.000000000    0.000000000
        0.000000000    0.000000000
        0.000000000    0.000000000
        0.000000000    0.000000000
        0.000000000    0.000000000
        0.000000000    0.000000000
        0.000000000    0.000000000
        0.000000000    0.000000000
        0.000000000    0.000000000
        0.000000000    0.000000000
        0.000000000    0.000000000
        0.000000000    0.000000000
        0.000000000    0.000000000
        0.000000000    0.000000000
        0.000000000    0.000000000
        0.000000000    0.000000000
        0.000000000    0.000000000
        0.000000000    0.000000000
        0.000000000    0.000000000
        0.000000000    0.000000000
        0.000000000    0.000000000
        0.000000000    0.000000000
        0.000000000    0.000000000
        0.000000000    0.000000000
        0.000000000    0.000000000
        0.000000000    0.000000000
        0.000000000    0.000000000
        0.000000000    0.000000000
        0.000000000    0.000000000
        0.000000000    0.000000000
        0.000000000    0.000000000
        0.000000000    0.000000000
        0.000000000    0.000000000
        0.000000000    0.000000000
        0.000000000    0.000000000
        0.000000000    0.000000000
        0.000000000    0.000000000
        0.000000000    0.000000000
        0.000000000    0.000000000
        0.000000000    0.000000000
        0.000000000    0.000000000
        0.000000000    0.000000000
        0.000000000    0.000000000
        0.000000000    0.000000000
        0.000000000    0.000000000
        0.000000000    0.000000000
        0.000000000    0.000000000
        0.000000000    0.000000000
        0.000000000    0.000000000
        0.000000000    0.000000000
        0.000000000    0.000000000
        0.000000000    0.000000000
        0.000000000    0.000000000
        0.000000000    0.000000000
        0.000000000    0.000000000
        0.000000000    0.000000000
        0.000000000    0.000000000
        0.000000000    0.000000000
        0.000000000    0.000000000
        0.000000000    0.000000000
        0.000000000    0.000000000
        0.000000000    0.000000000
        0.000000000    0.000000000
        0.000000000    0.000000000
        0.000000000    0.000000000
        0.000000001    0.000000001
        0.000000040    0.000000040
        0.000001349    0.000001349
        0.000030534    0.000030534
        0.000475157    0.000475157
        0.005138599    0.005138599
        0.038978001    0.038978001
        0.210106817    0.210106817
        0.821798760    0.821798760
        2.404902083    2.404902083
        5.481964592    5.481964592
       10.214777480   10.214777480
       16.361370887   16.361370887
       23.408312708   23.408312708
       30.598186452   30.598186452
       37.608996975   37.608996975
       44.825318065   44.825318065
       52.275127972   52.275127972
       59.319773503   59.319773503
       64.960781809   64.960781809
       68.070145367   68.070145367
       67.729887267   67.729887267
       63.424178961   63.424178961
       55.165516407   55.165516407
       44.477683997   44.477683997
       33.861943403   33.861943403
       24.359309727   24.359309727
       15.561706018   15.561706018
        8.062601242    8.062601242
        3.160646141    3.160646141
        0.900492422    0.900492422
        0.184437440    0.184437440
        0.028602745    0.028602745
        0.000000000    0.000000000
        0.017666723    0.017666723
        0.141473042    0.141473042
        0.751040264    0.751040264
        2.769146338    2.769146338
        7.338285133    7.338285133
       14.619444349   14.619444349
       23.441235175   23.441235175
       33.064523079   33.064523079
       43.739113216   43.739113216
       54.409264369   54.409264369
       62.594205447   62.594205447
       66.842301861   66.842301861
       67.225914987   67.225914987
       64.260973581   64.260973581
       58.795491004   58.795491004
       51.905214454   51.905214454
       44.563258348   44.563258348
       37.367241608   37.367241608
       30.220940268   30.220940268
       22.843953454   22.843953454
       15.790875640   15.790875640
        9.809607567    9.809607567
        5.250348593    5.250348593
        2.286722676    2.286722676
        0.770043664    0.770043664
        0.192860253    0.192860253
        0.034960967    0.034960967
        0.004507195    0.004507195
        0.000408748    0.000408748
        0.000025847    0.000025847
        0.000001126    0.000001126
        0.000000033    0.000000033
        0.000000001    0.000000001
        0.000000000    0.000000000
        0.000000000    0.000000000
        0.000000000    0.000000000
        0.000000000    0.000000000
        0.000000000    0.000000000
        0.000000000    0.000000000
        0.000000000    0.000000000
        0.000000000    0.000000000
        0.000000000    0.000000000
        0.000000000    0.000000000
        0.000000000    0.000000000
        0.000000000    0.000000000
        0.000000000    0.000000000
        0.000000000    0.000000000
        0.000000000    0.000000000
        0.000000000    0.000000000
        0.000000000    0.000000000
        0.000000000    0.000000000
        0.000000000    0.000000000
        0.000000000    0.000000000
        0.000000000    0.000000000
        0.000000000    0.000000000
        0.000000000    0.000000000
        0.000000000    0.000000000
        0.000000000    0.000000000
        0.000000000    0.000000000
        0.000000000    0.000000000
        0.000000000    0.000000000
        0.000000000    0.000000000
        0.000000000    0.000000000
        0.000000000    0.000000000
        0.000000000    0.000000000
        0.000000000    0.000000000
        0.000000000    0.000000000
        0.000000000    0.000000000
        0.000000000    0.000000000
        0.000000000    0.000000000
        0.000000000    0.000000000
        0.000000000    0.000000000
        0.000000000    0.000000000
        0.000000000    0.000000000
        0.000000000    0.000000000
        0.000000000    0.000000000
        0.000000000    0.000000000
        0.000000000    0.000000000
        0.000000000    0.000000000
        0.000000000    0.000000000
        0.000000000    0.000000000
        0.000000000    0.000000000
        0.000000000    0.000000000
        0.000000000    0.000000000
        0.000000000    0.000000000
        0.000000000    0.000000000
        0.000000000    0.000000000
        0.000000000    0.000000000
        0.000000000    0.000000000
        0.000000000    0.000000000
        0.000000000    0.000000000
        0.000000000    0.000000000
        0.000000000    0.000000000
        0.000000000    0.000000000
        0.000000000    0.000000000
        0.000000000    0.000000000
        0.000000000    0.000000000
        0.000000000    0.000000000
        0.000000000    0.000000000
        0.000000000    0.000000000
        0.000000000    0.000000000
        0.000000000    0.000000000
        0.000000000    0.000000000
        0.000000000    0.000000000
        0.000000000    0.000000000
        0.000000000    0.000000000
        0.000000000    0.000000000
        0.000000002    0.000000002
        0.000000062    0.000000062
        0.000001679    0.000001679
        0.000032155    0.000032155
        0.000443592    0.000443592
        0.004444728    0.004444728
        0.032525408    0.032525408
        0.174894156    0.174894156
        0.697285471    0.697285471
        2.092031836    2.092031836
        4.851003545    4.851003545
        9.097280186    9.097280186
       14.608903921   14.608903921
       20.968306695   20.968306695
       27.539330764   27.539330764
       33.928634199   33.928634199
       40.188620016   40.188620016
       46.334160099   46.334160099
       51.839565624   51.839565624
       55.998217474   55.998217474
       57.880881078   57.880881078
       56.840183051   56.840183051
       52.660693791   52.660693791
       45.669230671   45.669230671
       36.966281813   36.966281813
       28.045369220   28.045369220
       19.729603377   19.729603377
       12.201087460   12.201087460
        6.093780885    6.093780885
        2.277790525    2.277790525
        0.609569068    0.609569068
        0.115747944    0.115747944
        0.014554938    0.014554938
        0.000000000    0.000000000
        0.005232234    0.005232234
        0.072629826    0.072629826
        0.456335578    0.456335578
        1.862670947    1.862670947
        5.283866654    5.283866654
       11.055612425   11.055612425
       18.482258518   18.482258518
       26.891012263   26.891012263
       35.955251965   35.955251965
       44.767861691   44.767861691
       51.834969080   51.834969080
       56.082802660   56.082802660
       57.215768607   57.215768607
       55.470335206   55.470335206
       51.479318485   51.479318485
       46.089316598   46.089316598
       40.036395397   40.036395397
       33.713507847   33.713507847
       27.150403570   27.150403570
       20.428980258   20.428980258
       14.097452083   14.097452083
        8.746590678    8.746590678
        4.648018685    4.648018685
        1.983543554    1.983543554
        0.648709875    0.648709875
        0.158823845    0.158823845
        0.028812107    0.028812107
        0.003853197    0.003853197
        0.000378416    0.000378416
        0.000027139    0.000027139
        0.000001406    0.000001406
        0.000000052    0.000000052
        0.000000001    0.000000001
        0.000000000    0.000000000
        0.000000000    0.000000000
        0.000000000    0.000000000
        0.000000000    0.000000000
        0.000000000    0.000000000
        0.000000000    0.000000000
        0.000000000    0.000000000
        0.000000000    0.000000000
        0.000000000    0.000000000
        0.000000000    0.000000000
        0.000000000    0.000000000
        0.000000000    0.000000000
        0.000000000    0.000000000
        0.000000000    0.000000000
        0.000000000    0.000000000
        0.000000000    0.000000000
        0.000000000    0.000000000
        0.000000000    0.000000000
        0.000000000    0.000000000
        0.000000000    0.000000000
        0.000000000    0.000000000
        0.000000000    0.000000000
        0.000000000    0.000000000
        0.000000000    0.000000000
        0.000000000    0.000000000
        0.000000000    0.000000000
        0.000000000    0.000000000
        0.000000000    0.000000000
        0.000000000    0.000000000
        0.000000000    0.000000000
        0.000000000    0.000000000
        0.000000000    0.000000000
        0.000000000    0.000000000
        0.000000000    0.000000000
        0.000000000    0.000000000
        0.000000000    0.000000000
        0.000000000    0.000000000
        0.000000000    0.000000000
        0.000000000    0.000000000
        0.000000000    0.000000000
        0.000000000    0.000000000
        0.000000000    0.000000000
        0.000000000    0.000000000
        0.000000000    0.000000000
        0.000000000    0.000000000
        0.000000000    0.000000000
        0.000000000    0.000000000
        0.000000000    0.000000000
        0.000000000    0.000000000
        0.000000000    0.000000000
        0.000000000    0.000000000
        0.000000000    0.000000000
        0.000000000    0.000000000
        0.000000000    0.000000000
        0.000000000    0.000000000
        0.000000000    0.000000000
        0.000000000    0.000000000
        0.000000000    0.000000000
        0.000000000    0.000000000
        0.000000000    0.000000000
        0.000000000    0.000000000
        0.000000000    0.000000000
        0.000000000    0.000000000
        0.000000000    0.000000000
        0.000000000    0.000000000
        0.000000000    0.000000000
        0.000000000    0.000000000
        0.000000000    0.000000000
        0.000000000    0.000000000
        0.000000000    0.000000000
        0.000000000    0.000000000
        0.000000000    0.000000000
        0.000000000    0.000000000
        0.000000000    0.000000000
        0.000000004    0.000000004
        0.000000103    0.000000103
        0.000002002    0.000002002
        0.000029870    0.000029870
        0.000345277    0.000345277
        0.003107611    0.003107611
        0.021786142    0.021786142
        0.118501867    0.118501867
        0.495288068    0.495288068
        1.570358727    1.570358727
        3.778271821    3.778271821
        7.176120132    7.176120132
       11.556793756   11.556793756
       16.643819239   16.643819239
       21.977012226   21.977012226
       27.174037172   27.174037172
       32.068398536   32.068398536
       36.476666921   36.476666921
       40.097327154   40.097327154
       42.237683514   42.237683514
       42.412013697   42.412013697
       40.541286182   40.541286182
       36.858240354   36.858240354
       31.685937521   31.685937521
       25.484429211   25.484429211
       18.987946061   18.987946061
       12.897923724   12.897923724
        7.604122937    7.604122937
        3.573968377    3.573968377
        1.225226407    1.225226407
        0.288760619    0.288760619
        0.045201796    0.045201796
        0.003028578    0.003028578
       -0.000000000   -0.000000000
        0.000394165    0.000394165
        0.020687315    0.020687315
        0.183516396    0.183516396
        0.906545474    0.906545474
        2.894219216    2.894219216
        6.543877397    6.543877397
       11.592726199   11.592726199
       17.611315775   17.611315775
       24.160025372   24.160025372
       30.482331280   30.482331280
       35.803025483   35.803025483
       39.644184707   39.644184707
       41.682442997   41.682442997
       41.685875766   41.685875766
       39.719766536   39.719766536
       36.268187588   36.268187588
       31.872258928   31.872258928
       26.923998910   26.923998910
       21.634855488   21.634855488
       16.260667656   16.260667656
       11.238018514   11.238018514
        6.964675209    6.964675209
        3.642374383    3.642374383
        1.490285316    1.490285316
        0.460118446    0.460118446
        0.107721661    0.107721661
        0.019444736    0.019444736
        0.002737413    0.002737413
        0.000301615    0.000301615
        0.000025938    0.000025938
        0.000001726    0.000001726
        0.000000087    0.000000087
        0.000000003    0.000000003
        0.000000000    0.000000000
        0.000000000    0.000000000
        0.000000000    0.000000000
        0.000000000    0.000000000
        0.000000000    0.000000000
        0.000000000    0.000000000
        0.000000000    0.000000000
        0.000000000    0.000000000
        0.000000000    0.000000000
        0.000000000    0.000000000
        0.000000000    0.000000000
        0.000000000    0.000000000
        0.000000000    0.000000000
        0.000000000    0.000000000
        0.000000000    0.000000000
        0.000000000    0.000000000
        0.000000000    0.000000000
        0.000000000    0.000000000
        0.000000000    0.000000000
        0.000000000    0.000000000
        0.000000000    0.000000000
        0.000000000    0.000000000
        0.000000000    0.000000000
        0.000000000    0.000000000
        0.000000000    0.000000000
        0.000000000    0.000000000
        0.000000000    0.000000000
        0.000000000    0.000000000
        0.000000000    0.000000000
        0.000000000    0.000000000
        0.000000000    0.000000000
        0.000000000    0.000000000
        0.000000000    0.000000000
        0.000000000    0.000000000
        0.000000000    0.000000000
        0.000000000    0.000000000
        0.000000000    0.000000000
        0.000000000    0.000000000
        0.000000000    0.000000000
        0.000000000    0.000000000
        0.000000000    0.000000000
        0.000000000    0.000000000
        0.000000000    0.000000000
        0.000000000    0.000000000
        0.000000000    0.000000000
        0.000000000    0.000000000
        0.000000000    0.000000000
        0.000000000    0.000000000
        0.000000000    0.000000000
        0.000000000    0.000000000
        0.000000000    0.000000000
        0.000000000    0.000000000
        0.000000000    0.000000000
        0.000000000    0.000000000
        0.000000000    0.000000000
        0.000000000    0.000000000
        0.000000000    0.000000000
        0.000000000    0.000000000
        0.000000000    0.000000000
        0.000000000    0.000000000
        0.000000000    0.000000000
        0.000000000    0.000000000
        0.000000000    0.000000000
        0.000000000    0.000000000
        0.000000000    0.000000000
        0.000000000    0.000000000
        0.000000000    0.000000000
        0.000000000    0.000000000
        0.000000000    0.000000000
        0.000000000    0.000000000
        0.000000000    0.000000000
        0.000000000    0.000000000
        0.000000000    0.000000000
        0.000000000    0.000000000
        0.000000009    0.000000009
        0.000000145    0.000000145
        0.000001880    0.000001880
        0.000020467    0.000020467
        0.000189296    0.000189296
        0.001495723    0.001495723
        0.010081067    0.010081067
        0.057193087    0.057193087
        0.263643469    0.263643469
        0.930701051    0.930701051
        2.401147002    2.401147002
        4.663995928    4.663995928
        7.508011469    7.508011469
       10.771437796   10.771437796
       14.185699282   14.185699282
       17.466152847   17.466152847
       20.414505324   20.414505324
       22.847621393   22.847621393
       24.562770097   24.562770097
       25.211969440   25.211969440
       24.662835621   24.662835621
       22.993917379   22.993917379
       20.421973608   20.421973608
       17.206278678   17.206278678
       13.613928955   13.613928955
        9.933344391    9.933344391
        6.490703166    6.490703166
        3.606589699    3.606589699
        1.560487574    1.560487574
        0.470681218    0.470681218
        0.089139574    0.089139574
        0.009125159    0.009125159
        0.000122987    0.000122987
       -0.000000000   -0.000000000
       -0.000007434   -0.000007434
        0.002285111    0.002285111
        0.042734503    0.042734503
        0.296224350    0.296224350
        1.137821002    1.137821002
        2.874875072    2.874875072
        5.487172686    5.487172686
        8.755776530    8.755776530
       12.372045727   12.372045727
       15.989989122   15.989989122
       19.296338941   19.296338941
       22.007743595   22.007743595
       23.850768120   23.850768120
       24.586437233   24.586437233
       24.107302212   24.107302212
       22.551940509   22.551940509
       20.195932236   20.195932236
       17.302714542   17.302714542
       14.060636875   14.060636875
       10.685855270   10.685855270
        7.457776590    7.457776590
        4.616680160    4.616680160
        2.340968724    2.340968724
        0.886160427    0.886160427
        0.245582935    0.245582935
        0.052567834    0.052567834
        0.009231479    0.009231479
        0.001373490    0.001373490
        0.000174474    0.000174474
        0.000018837    0.000018837
        0.000001710    0.000001710
        0.000000128    0.000000128
        0.000000008    0.000000008
        0.000000000    0.000000000
        0.000000000    0.000000000
        0.000000000    0.000000000
        0.000000000    0.000000000
        0.000000000    0.000000000
        0.000000000    0.000000000
        0.000000000    0.000000000
        0.000000000    0.000000000
        0.000000000    0.000000000
        0.000000000    0.000000000
        0.000000000    0.000000000
        0.000000000    0.000000000
        0.000000000    0.000000000
        0.000000000    0.000000000
        0.000000000    0.000000000
        0.000000000    0.000000000
        0.000000000    0.000000000
        0.000000000    0.000000000
        0.000000000    0.000000000
        0.000000000    0.000000000
        0.000000000    0.000000000
        0.000000000    0.000000000
        0.000000000    0.000000000
        0.000000000    0.000000000
        0.000000000    0.000000000
        0.000000000    0.000000000
        0.000000000    0.000000000
        0.000000000    0.000000000
        0.000000000    0.000000000
        0.000000000    0.000000000
        0.000000000    0.000000000
        0.000000000    0.000000000
        0.000000000    0.000000000
        0.000000000    0.000000000
        0.000000000    0.000000000
        0.000000000    0.000000000
        0.000000000    0.000000000
        0.000000000    0.000000000
        0.000000000    0.000000000
        0.000000000    0.000000000
        0.000000000    0.000000000
        0.000000000    0.000000000
        0.000000000    0.000000000
        0.000000000    0.000000000
        0.000000000    0.000000000
        0.000000000    0.000000000
        0.000000000    0.000000000
        0.000000000    0.000000000
        0.000000000    0.000000000
        0.000000000    0.000000000
        0.000000000    0.000000000
        0.000000000    0.000000000
        0.000000000    0.000000000
        0.000000000    0.000000000
        0.000000000    0.000000000
        0.000000000    0.000000000
        0.000000000    0.000000000
        0.000000000    0.000000000
        0.000000000    0.000000000
        0.000000000    0.000000000
        0.000000000    0.000000000
        0.000000000    0.000000000
        0.000000000    0.000000000
        0.000000000    0.000000000
        0.000000000    0.000000000
        0.000000000    0.000000000
        0.000000000    0.000000000
        0.000000000    0.000000000
        0.000000000    0.000000000
        0.000000000    0.000000000
        0.000000000    0.000000000
        0.000000000    0.000000000
        0.000000000    0.000000000
        0.000000001    0.000000001
        0.000000016    0.000000016
        0.000000141    0.000000141
        0.000001116    0.000001116
        0.000008115    0.000008115
        0.000055763    0.000055763
        0.000371538    0.000371538
        0.002442384    0.002442384
        0.015659458    0.015659458
        0.090076310    0.090076310
        0.394432463    0.394432463
        1.153832381    1.153832381
        2.335015119    2.335015119
        3.762905987    3.762905987
        5.355255216    5.355255216
        7.009187437    7.009187437
        8.582292788    8.582292788
        9.944481918    9.944481918
       10.982200396   10.982200396
       11.585280862   11.585280862
       11.670909313   11.670909313
       11.216450780   11.216450780
       10.265363711   10.265363711
        8.921045818    8.921045818
        7.328874748    7.328874748
        5.645154741    5.645154741
        4.005524998    4.005524998
        2.522287518    2.522287518
        1.319646525    1.319646525
        0.520328225    0.520328225
        0.134288905    0.134288905
        0.018337371    0.018337371
        0.000811706    0.000811706
        0.000000285    0.000000285
        0.000000000    0.000000000
       -0.000000092   -0.000000092
        0.000023759    0.000023759
        0.005008421    0.005008421
        0.062991032    0.062991032
        0.316308728    0.316308728
        0.925335310    0.925335310
        1.927795366    1.927795366
        3.244172276    3.244172276
        4.776051480    4.776051480
        6.423160480    6.423160480
        8.052952142    8.052952142
        9.502369825    9.502369825
       10.604100181   10.604100181
       11.216427479   11.216427479
       11.260433726   11.260433726
       10.759226277   10.759226277
        9.823692769    9.823692769
        8.570336436    8.570336436
        7.089275999    7.089275999
        5.480465519    5.480465519
        3.868869424    3.868869424
        2.374334230    2.374334230
        1.139932458    1.139932458
        0.376475125    0.376475125
        0.083987707    0.083987707
        0.014556701    0.014556701
        0.002305119    0.002305119
        0.000358921    0.000358921
        0.000054899    0.000054899
        0.000008021    0.000008021
        0.000001085    0.000001085
        0.000000131    0.000000131
        0.000000014    0.000000014
        0.000000001    0.000000001
        0.000000000    0.000000000
        0.000000000    0.000000000
        0.000000000    0.000000000
        0.000000000    0.000000000
        0.000000000    0.000000000
        0.000000000    0.000000000
        0.000000000    0.000000000
        0.000000000    0.000000000
        0.000000000    0.000000000
        0.000000000    0.000000000
        0.000000000    0.000000000
        0.000000000    0.000000000
        0.000000000    0.000000000
        0.000000000    0.000000000
        0.000000000    0.000000000
        0.000000000    0.000000000
        0.000000000    0.000000000
        0.000000000    0.000000000
        0.000000000    0.000000000
        0.000000000    0.000000000
        0.000000000    0.000000000
        0.000000000    0.000000000
        0.000000000    0.000000000
        0.000000000    0.000000000
        0.000000000    0.000000000
        0.000000000    0.000000000
        0.000000000    0.000000000
        0.000000000    0.000000000
        0.000000000    0.000000000
        0.000000000    0.000000000
        0.000000000    0.000000000
        0.000000000    0.000000000
        0.000000000    0.000000000
        0.000000000    0.000000000
        0.000000000    0.000000000
        0.000000000    0.000000000
        0.000000000    0.000000000