
BEGIN_INFO
  Fermi Energy:    -0.755068665
  Shift Range: -1.000000000eV to 0.000000000eV
END_INFO

BEGIN_BLOCK_BANDGRID_3D
band_energies
BANDGRID_3D_BANDS
           2
         141         141           2
    0.000000  0.000000  0.000000
    0.723869  0.000000  0.000000
    0.000000  0.746257  0.000000
    0.000000  0.000000  0.120645
  BAND:     1
        0.000000000    0.000000000
        0.000000000    0.000000000
        0.000000000    0.000000000
        0.000000000    0.000000000
        0.000000000    0.000000000
        0.000000000    0.000000000
        0.000000000    0.000000000
        0.000000000    0.000000000
        0.000000000    0.000000000
        0.000000000    0.000000000
        0.000000000    0.000000000
        0.000000000    0.000000000
        0.000000000    0.000000000
        0.000000000    0.000000000
        0.000000000    0.000000000
        0.000000000    0.000000000
        0.000000000    0.000000000
        0.000000000    0.000000000
        0.000000000    0.000000000
        0.000000000    0.000000000
        0.000000000    0.000000000
        0.000000000    0.000000000
        0.000000000    0.000000000
        0.000000000    0.000000000
        0.000000000    0.000000000
        0.000000000    0.000000000
        0.000000000    0.000000000
        0.000000000    0.000000000
        0.000000000    0.000000000
        0.000000000    0.000000000
        0.000000000    0.000000000
        0.000000000    0.000000000
        0.000000000    0.000000000
        0.000000000    0.000000000
        0.000000000    0.000000000
        0.000000000    0.000000000
       -0.000000000   -0.000000000
       -0.000000000   -0.000000000
       -0.000000012   -0.000000012
       -0.000000546   -0.000000546
       -0.000015258   -0.000015258
       -0.000276111   -0.000276111
       -0.003329467   -0.003329467
       -0.027366488   -0.027366488
       -0.157045915   -0.157045915
       -0.648745847   -0.648745847
       -2.004484002   -2.004484002
       -4.833151497   -4.833151497
       -9.488927539   -9.488927539
      -15.812729387  -15.812729387
      -23.178538335  -23.178538335
      -30.683674202  -30.683674202
      -38.029748129  -38.029748129
      -45.760515751  -45.760515751
      -53.884730856  -53.884730856
      -61.693207347  -61.693207347
      -68.077232791  -68.077232791
      -71.680561525  -71.680561525
      -71.527323600  -71.527323600
      -67.284732956  -67.284732956
      -58.738334211  -58.738334211
      -47.127043861  -47.127043861
      -35.555919960  -35.555919960
      -25.565111667  -25.565111667
      -16.442462009  -16.442462009
       -8.595981094   -8.595981094
       -3.403118835   -3.403118835
       -0.972232488   -0.972232488
       -0.192702747   -0.192702747
       -0.026857178   -0.026857178
       -0.002597837   -0.002597837
       -0.025803876   -0.025803876
       -0.173684965   -0.173684965
       -0.882503066   -0.882503066
       -3.147309884   -3.147309884
       -8.123148108   -8.123148108
      -15.858552719  -15.858552719
      -25.025389207  -25.025389207
      -35.036418102  -35.036418102
      -46.540632747  -46.540632747
      -58.075933509  -58.075933509
      -66.532277736  -66.532277736
      -70.699452642  -70.699452642
      -70.849360404  -70.849360404
      -67.324270998  -67.324270998
      -61.061335224  -61.061335224
      -53.370145349  -53.370145349
      -45.351379984  -45.351379984
      -37.687479906  -37.687479906
      -30.277422629  -30.277422629
      -22.643857820  -22.643857820
      -15.309956164  -15.309956164
       -9.156357182   -9.156357182
       -4.657532046   -4.657532046
       -1.921214521   -1.921214521
       -0.613874630   -0.613874630
       -0.145675553   -0.145675553
       -0.024759187   -0.024759187
       -0.002927633   -0.002927633
       -0.000235134   -0.000235134
       -0.000012515   -0.000012515
       -0.000000426   -0.000000426
       -0.000000009   -0.000000009
       -0.000000000   -0.000000000
       -0.000000000   -0.000000000
        0.000000000    0.000000000
        0.000000000    0.000000000
        0.000000000    0.000000000
        0.000000000    0.000000000
        0.000000000    0.000000000
        0.000000000    0.000000000
        0.000000000    0.000000000
        0.000000000    0.000000000
        0.000000000    0.000000000
        0.000000000    0.000000000
        0.000000000    0.000000000
        0.000000000    0.000000000
        0.000000000    0.000000000
        0.000000000    0.000000000
        0.000000000    0.000000000
        0.000000000    0.000000000
        0.000000000    0.000000000
        0.000000000    0.000000000
        0.000000000    0.000000000
        0.000000000    0.000000000
        0.000000000    0.000000000
        0.000000000    0.000000000
        0.000000000    0.000000000
        0.000000000    0.000000000
        0.000000000    0.000000000
        0.000000000    0.000000000
        0.000000000    0.000000000
        0.000000000    0.000000000
        0.000000000    0.000000000
        0.000000000    0.000000000
        0.000000000    0.000000000
        0.000000000    0.000000000
        0.000000000    0.000000000
        0.000000000    0.000000000
        0.000000000    0.000000000
        0.000000000    0.000000000
        0.000000000    0.000000000
        0.000000000    0.000000000
        0.000000000    0.000000000
        0.000000000    0.000000000
        0.000000000    0.000000000
        0.000000000    0.000000000
        0.000000000    0.000000000
        0.000000000    0.000000000
        0.000000000    0.000000000
        0.000000000    0.000000000
        0.000000000    0.000000000
        0.000000000    0.000000000
        0.000000000    0.000000000
        0.000000000    0.000000000
        0.000000000    0.000000000
        0.000000000    0.000000000
        0.000000000    0.000000000
        0.000000000    0.000000000
        0.000000000    0.000000000
        0.000000000    0.000000000
        0.000000000    0.000000000
        0.000000000    0.000000000
        0.000000000    0.000000000
        0.000000000    0.000000000
        0.000000000    0.000000000
        0.000000000    0.000000000
        0.000000000    0.000000000
        0.000000000    0.000000000
        0.000000000    0.000000000
        0.000000000    0.000000000
        0.000000000    0.000000000
        0.000000000    0.000000000
        0.000000000    0.000000000
        0.000000000    0.000000000
        0.000000000    0.000000000
        0.000000000    0.000000000
       -0.000000000   -0.000000000
       -0.000000000   -0.000000000
       -0.000000014   -0.000000014
       -0.000000577   -0.000000577
       -0.000015231   -0.000015231
       -0.000265690   -0.000265690
       -0.003147539   -0.003147539
       -0.025804170   -0.025804170
       -0.149173477   -0.149173477
       -0.622944346   -0.622944346
       -1.940075764   -1.940075764
       -4.685816277   -4.685816277
       -9.176806719   -9.176806719
      -15.261485448  -15.261485448
      -22.372936497  -22.372936497
      -29.665645909  -29.665645909
      -36.777597066  -36.777597066
      -44.098523210  -44.098523210
      -51.684111608  -51.684111608
      -58.905819627  -58.905819627
      -64.745339689  -64.745339689
      -68.039078124  -68.039078124
      -67.835251079  -67.835251079
      -63.584226519  -63.584226519
      -55.262119962  -55.262119962
      -44.405480685  -44.405480685
      -33.610659608  -33.610659608
      -24.029986124  -24.029986124
      -15.287624291  -15.287624291
       -7.903756018   -7.903756018
       -3.091422725   -3.091422725
       -0.876658205   -0.876658205
       -0.181085762   -0.181085762
       -0.037658430   -0.037658430
        0.000000000    0.000000000
       -0.037051704   -0.037051704
       -0.161428453   -0.161428453
       -0.782413522   -0.782413522
       -2.815666930   -2.815666930
       -7.376503779   -7.376503779
      -14.606829699  -14.606829699
      -23.379873390  -23.379873390
      -33.026492547  -33.026492547
      -43.795161592  -43.795161592
      -54.555963317  -54.555963317
      -62.759033209  -62.759033209
      -66.939202512  -66.939202512
      -67.184858856  -67.184858856
      -64.034161617  -64.034161617
      -58.368318105  -58.368318105
      -51.298854680  -51.298854680
      -43.818373774  -43.818373774
      -36.514934485  -36.514934485
      -29.273293987  -29.273293987
      -21.810029163  -21.810029163
      -14.693876075  -14.693876075
       -8.759402930   -8.759402930
       -4.442872770   -4.442872770
       -1.825426026   -1.825426026
       -0.580597033   -0.580597033
       -0.137590434   -0.137590434
       -0.023550322   -0.023550322
       -0.002840143   -0.002840143
       -0.000236267   -0.000236267
       -0.000013255   -0.000013255
       -0.000000486   -0.000000486
       -0.000000011   -0.000000011
       -0.000000000   -0.000000000
       -0.000000000   -0.000000000
        0.000000000    0.000000000
        0.000000000    0.000000000
        0.000000000    0.000000000
        0.000000000    0.000000000
        0.000000000    0.000000000
        0.000000000    0.000000000
        0.000000000    0.000000000
        0.000000000    0.000000000
        0.000000000    0.000000000
        0.000000000    0.000000000
        0.000000000    0.000000000
        0.000000000    0.000000000
        0.000000000    0.000000000
        0.000000000    0.000000000
        0.000000000    0.000000000
        0.000000000    0.000000000
        0.000000000    0.000000000
        0.000000000    0.000000000
        0.000000000    0.000000000
        0.000000000    0.000000000
        0.000000000    0.000000000
        0.000000000    0.000000000
        0.000000000    0.000000000
        0.000000000    0.000000000
        0.000000000    0.000000000
        0.000000000    0.000000000
        0.000000000    0.000000000
        0.000000000    0.000000000
        0.000000000    0.000000000
        0.000000000    0.000000000
        0.000000000    0.000000000
        0.000000000    0.000000000
        0.000000000    0.000000000
        0.000000000    0.000000000
        0.000000000    0.000000000
        0.000000000    0.000000000
        0.000000000    0.000000000
        0.000000000    0.000000000
        0.000000000    0.000000000
        0.000000000    0.000000000
        0.000000000    0.000000000
        0.000000000    0.000000000
        0.000000000    0.000000000
        0.000000000    0.000000000
        0.000000000    0.000000000
        0.000000000    0.000000000
        0.000000000    0.000000000
        0.000000000    0.000000000
        0.000000000    0.000000000
        0.000000000    0.000000000
        0.000000000    0.000000000
        0.000000000    0.000000000
        0.000000000    0.000000000
        0.000000000    0.000000000
        0.000000000    0.000000000
        0.000000000    0.000000000
        0.000000000    0.000000000
        0.000000000    0.000000000
        0.000000000    0.000000000
        0.000000000    0.000000000
        0.000000000    0.000000000
        0.000000000    0.000000000
        0.000000000    0.000000000
        0.000000000    0.000000000
        0.000000000    0.000000000
        0.000000000    0.000000000
        0.000000000    0.000000000
        0.000000000    0.000000000
        0.000000000    0.000000000
        0.000000000    0.000000000
        0.000000000    0.000000000
        0.000000000    0.000000000
       -0.000000000   -0.000000000
       -0.000000000   -0.000000000
       -0.000000021   -0.000000021
       -0.000000692   -0.000000692
       -0.000015364   -0.000015364
       -0.000239258   -0.000239258
       -0.002661269   -0.002661269
       -0.021357463   -0.021357463
       -0.124603712   -0.124603712
       -0.533319688   -0.533319688
       -1.699842321   -1.699842321
       -4.147458209   -4.147458209
       -8.117321595   -8.117321595
      -13.493043648  -13.493043648
      -19.857340837  -19.857340837
      -26.507053918  -26.507053918
      -33.002311512  -33.002311512
      -39.391098236  -39.391098236
      -45.704682555  -45.704682555
      -51.427811448  -51.427811448
      -55.808453393  -55.808453393
      -57.892922484  -57.892922484
      -56.982421283  -56.982421283
      -52.821540620  -52.821540620
      -45.730443687  -45.730443687
      -36.853895424  -36.853895424
      -27.778500124  -27.778500124
      -19.417985835  -19.417985835
      -11.966276170  -11.966276170
       -5.981763952   -5.981763952
       -2.255450928   -2.255450928
       -0.626527923   -0.626527923
       -0.143100217   -0.143100217
       -0.041989841   -0.041989841
        0.000000000    0.000000000
       -0.038779294   -0.038779294
       -0.126369311   -0.126369311
       -0.548166706   -0.548166706
       -2.013504627   -2.013504627
       -5.484385997   -5.484385997
      -11.257722157  -11.257722157
      -18.654730428  -18.654730428
      -27.062471957  -27.062471957
      -36.171910743  -36.171910743
      -45.029909382  -45.029909382
      -52.086364090  -52.086364090
      -56.241812807  -56.241812807
      -57.207465438  -57.207465438
      -55.247552492  -55.247552492
      -51.033216815  -51.033216815
      -45.401473838  -45.401473838
      -39.191444098  -39.191444098
      -32.733547111  -32.733547111
      -26.060942382  -26.060942382
      -19.249487322  -19.249487322
      -12.883148271  -12.883148271
       -7.653772452   -7.653772452
       -3.870222502   -3.870222502
       -1.571835676   -1.571835676
       -0.489888504   -0.489888504
       -0.114161527   -0.114161527
       -0.019599260   -0.019599260
       -0.002451070   -0.002451070
       -0.000220660   -0.000220660
       -0.000014080   -0.000014080
       -0.000000621   -0.000000621
       -0.000000018   -0.000000018
       -0.000000000   -0.000000000
       -0.000000000   -0.000000000
        0.000000000    0.000000000
        0.000000000    0.000000000
        0.000000000    0.000000000
        0.000000000    0.000000000
        0.000000000    0.000000000
        0.000000000    0.000000000
        0.000000000    0.000000000
        0.000000000    0.000000000
        0.000000000    0.000000000
        0.000000000    0.000000000
        0.000000000    0.000000000
        0.000000000    0.000000000
        0.000000000    0.000000000
        0.000000000    0.000000000
        0.000000000    0.000000000
        0.000000000    0.000000000
        0.000000000    0.000000000
        0.000000000    0.000000000
        0.000000000    0.000000000
        0.000000000    0.000000000
        0.000000000    0.000000000
        0.000000000    0.000000000
        0.000000000    0.000000000
        0.000000000    0.000000000
        0.000000000    0.000000000
        0.000000000    0.000000000
        0.000000000    0.000000000
        0.000000000    0.000000000
        0.000000000    0.000000000
        0.000000000    0.000000000
        0.000000000    0.000000000
        0.000000000    0.000000000
        0.000000000    0.000000000
        0.000000000    0.000000000
        0.000000000    0.000000000
        0.000000000    0.000000000
        0.000000000    0.000000000
        0.000000000    0.000000000
        0.000000000    0.000000000
        0.000000000    0.000000000
        0.000000000    0.000000000
        0.000000000    0.000000000
        0.000000000    0.000000000
        0.000000000    0.000000000
        0.000000000    0.000000000
        0.000000000    0.000000000
        0.000000000    0.000000000
        0.000000000    0.000000000
        0.000000000    0.000000000
        0.000000000    0.000000000
        0.000000000    0.000000000
        0.000000000    0.000000000
        0.000000000    0.000000000
        0.000000000    0.000000000
        0.000000000    0.000000000
        0.000000000    0.000000000
        0.000000000    0.000000000
        0.000000000    0.000000000
        0.000000000    0.000000000
        0.000000000    0.000000000
        0.000000000    0.000000000
        0.000000000    0.000000000
        0.000000000    0.000000000
        0.000000000    0.000000000
        0.000000000    0.000000000
        0.000000000    0.000000000
        0.000000000    0.000000000
        0.000000000    0.000000000
        0.000000000    0.000000000
        0.000000000    0.000000000
        0.000000000    0.000000000
       -0.000000000   -0.000000000
       -0.000000000   -0.000000000
       -0.000000001   -0.000000001
       -0.000000035   -0.000000035
       -0.000000815   -0.000000815
       -0.000013993   -0.000013993
       -0.000183444   -0.000183444
       -0.001851530   -0.001851530
       -0.014378583   -0.014378583
       -0.085390343   -0.085390343
       -0.383382625   -0.383382625
       -1.284582141   -1.284582141
       -3.222223838   -3.222223838
       -6.329983023   -6.329983023
      -10.503807162  -10.503807162
      -15.509966560  -15.509966560
      -20.861150078  -20.861150078
      -26.136613295  -26.136613295
      -31.146601584  -31.146601584
      -35.152333971  -35.152333971
      -39.661375540  -39.661375540
      -42.019008950  -42.019008950
      -42.394787191  -42.394787191
      -40.640415087  -40.640415087
      -36.961180172  -36.961180172
      -31.702606758  -31.702606758
      -25.384134316  -25.384134316
      -18.811007986  -18.811007986
      -12.732561099  -12.732561099
       -7.525495195   -7.525495195
       -3.589621694   -3.589621694
       -1.287085332   -1.287085332
       -0.348899365   -0.348899365
       -0.084894294   -0.084894294
       -0.017420665   -0.017420665
       -0.000000000   -0.000000000
       -0.013739351   -0.013739351
       -0.073334200   -0.073334200
       -0.298702527   -0.298702527
       -1.121672807   -1.121672807
       -3.215894473   -3.215894473
       -6.926089934   -6.926089934
      -11.986485788  -11.986485788
      -18.013877586  -18.013877586
      -24.591702211  -24.591702211
      -30.936640540  -30.936640540
      -36.223473947  -36.223473947
      -39.933060782  -39.933060782
      -41.736672559  -41.736672559
      -41.447601864  -41.447601864
      -39.229826641  -39.229826641
      -35.284389577  -35.284389577
      -30.805100395  -30.805100395
      -25.720104454  -25.720104454
      -20.318546346  -20.318546346
      -14.880652717  -14.880652717
       -9.914310563   -9.914310563
       -5.893143492   -5.893143492
       -2.965991939   -2.965991939
       -1.171301164   -1.171301164
       -0.347815252   -0.347815252
       -0.077613502   -0.077613502
       -0.013186943   -0.013186943
       -0.001721280   -0.001721280
       -0.000172802   -0.000172802
       -0.000013263   -0.000013263
       -0.000000767   -0.000000767
       -0.000000032   -0.000000032
       -0.000000001   -0.000000001
       -0.000000000   -0.000000000
       -0.000000000   -0.000000000
        0.000000000    0.000000000
        0.000000000    0.000000000
        0.000000000    0.000000000
        0.000000000    0.000000000
        0.000000000    0.000000000
        0.000000000    0.000000000
        0.000000000    0.000000000
        0.000000000    0.000000000
        0.000000000    0.000000000
        0.000000000    0.000000000
        0.000000000    0.000000000
        0.000000000    0.000000000
        0.000000000    0.000000000
        0.000000000    0.000000000
        0.000000000    0.000000000
        0.000000000    0.000000000
        0.000000000    0.000000000
        0.000000000    0.000000000
        0.000000000    0.000000000
        0.000000000    0.000000000
        0.000000000    0.000000000
        0.000000000    0.000000000
        0.000000000    0.000000000
        0.000000000    0.000000000
        0.000000000    0.000000000
        0.000000000    0.000000000
        0.000000000    0.000000000
        0.000000000    0.000000000
        0.000000000    0.000000000
        0.000000000    0.000000000
        0.000000000    0.000000000
        0.000000000    0.000000000
        0.000000000    0.000000000
        0.000000000    0.000000000
        0.000000000    0.000000000
        0.000000000    0.000000000
        0.000000000    0.000000000
        0.000000000    0.000000000
        0.000000000    0.000000000
        0.000000000    0.000000000
        0.000000000    0.000000000
        0.000000000    0.000000000
        0.000000000    0.000000000
        0.000000000    0.000000000
        0.000000000    0.000000000
        0.000000000    0.000000000
        0.000000000    0.000000000
        0.000000000    0.000000000
        0.000000000    0.000000000
        0.000000000    0.000000000
        0.000000000    0.000000000
        0.000000000    0.000000000
        0.000000000    0.000000000
        0.000000000    0.000000000
        0.000000000    0.000000000
        0.000000000    0.000000000
        0.000000000    0.000000000
        0.000000000    0.000000000
        0.000000000    0.000000000
        0.000000000    0.000000000
        0.000000000    0.000000000
        0.000000000    0.000000000
        0.000000000    0.000000000
        0.000000000    0.000000000
        0.000000000    0.000000000
        0.000000000    0.000000000
        0.000000000    0.000000000
        0.000000000    0.000000000
        0.000000000    0.000000000
       -0.000000000   -0.000000000
       -0.000000000   -0.000000000
       -0.000000000   -0.000000000
       -0.000000003   -0.000000003
       -0.000000054   -0.000000054
       -0.000000793   -0.000000793
       -0.000009779   -0.000009779
       -0.000102143   -0.000102143
       -0.000905223   -0.000905223
       -0.006760114   -0.006760114
       -0.041799333   -0.041799333
       -0.206106520   -0.206106520
       -0.764067951   -0.764067951
       -2.038985858   -2.038985858
       -4.062662734   -4.062662734
       -6.698652814   -6.698652814
       -9.833348042   -9.833348042
      -13.203116785  -13.203116785
      -16.507948505  -16.507948505
      -19.535543159  -19.535543159
      -21.929718226  -21.929718226
      -24.113536704  -24.113536704
      -24.974309635  -24.974309635
      -24.605140150  -24.605140150
      -23.033399866  -23.033399866
      -20.475540265  -20.475540265
      -17.225489759  -17.225489759
      -13.598609289  -13.598609289
       -9.922031140   -9.922031140
       -6.530307450   -6.530307450
       -3.713044311   -3.713044311
       -1.699182762   -1.699182762
       -0.585126729   -0.585126729
       -0.151463232   -0.151463232
       -0.030064916   -0.030064916
       -0.001321768   -0.001321768
       -0.000000000   -0.000000000
       -0.000712635   -0.000712635
       -0.024540315   -0.024540315
       -0.126574546   -0.126574546
       -0.497199553   -0.497199553
       -1.481014277   -1.481014277
       -3.323084387   -3.323084387
       -5.987232052   -5.987232052
       -9.288848108   -9.288848108
      -12.942363756  -12.942363756
      -16.583051583  -16.583051583
      -19.850008658  -19.850008658
      -22.412237085  -22.412237085
      -23.980403189  -23.980403189
      -24.358909773  -24.358909773
      -23.561102349  -23.561102349
      -21.553113255  -21.553113255
      -19.054114653  -19.054114653
      -16.015888943  -16.015888943
      -12.676041575  -12.676041575
       -9.302647621   -9.302647621
       -6.241759195   -6.241759195
       -3.740833692   -3.740833692
       -1.857987982   -1.857987982
       -0.689142343   -0.689142343
       -0.184785918   -0.184785918
       -0.037553604   -0.037553604
       -0.006139390   -0.006139390
       -0.000836438   -0.000836438
       -0.000096193   -0.000096193
       -0.000009339   -0.000009339
       -0.000000758   -0.000000758
       -0.000000050   -0.000000050
       -0.000000003   -0.000000003
       -0.000000000   -0.000000000
       -0.000000000   -0.000000000
       -0.000000000   -0.000000000
        0.000000000    0.000000000
        0.000000000    0.000000000
        0.000000000    0.000000000
        0.000000000    0.000000000
        0.000000000    0.000000000
        0.000000000    0.000000000
        0.000000000    0.000000000
        0.000000000    0.000000000
        0.000000000    0.000000000
        0.000000000    0.000000000
        0.000000000    0.000000000
        0.000000000    0.000000000
        0.000000000    0.000000000
        0.000000000    0.000000000
        0.000000000    0.000000000
        0.000000000    0.000000000
        0.000000000    0.000000000
        0.000000000    0.000000000
        0.000000000    0.000000000
        0.000000000    0.000000000
        0.000000000    0.000000000
        0.000000000    0.000000000
        0.000000000    0.000000000
        0.000000000    0.000000000
        0.000000000    0.000000000
        0.000000000    0.000000000
        0.000000000    0.000000000
        0.000000000    0.000000000
        0.000000000    0.000000000
        0.000000000    0.000000000
        0.000000000    0.000000000
        0.000000000    0.000000000
        0.000000000    0.000000000
        0.000000000    0.000000000
        0.000000000    0.000000000
        0.000000000    0.000000000
        0.000000000    0.000000000
        0.000000000    0.000000000
        0.000000000    0.000000000
        0.000000000    0.000000000
        0.000000000    0.000000000
        0.000000000    0.000000000
        0.000000000    0.000000000
        0.000000000    0.000000000
        0.000000000    0.000000000
        0.000000000    0.000000000
        0.000000000    0.000000000
        0.000000000    0.000000000
        0.000000000    0.000000000
        0.000000000    0.000000000
        0.000000000    0.000000000
        0.000000000    0.000000000
        0.000000000    0.000000000
        0.000000000    0.000000000
        0.000000000    0.000000000
        0.000000000    0.000000000
        0.000000000    0.000000000
        0.000000000    0.000000000
        0.000000000    0.000000000
        0.000000000    0.000000000
        0.000000000    0.000000000
        0.000000000    0.000000000
        0.000000000    0.000000000
        0.000000000    0.000000000
        0.000000000    0.000000000
        0.000000000    0.000000000
        0.000000000    0.000000000
        0.000000000    0.000000000
       -0.000000000   -0.000000000
       -0.000000000   -0.000000000
       -0.000000000   -0.000000000
       -0.000000006   -0.000000006
       -0.000000059   -0.000000059
       -0.000000517   -0.000000517
       -0.000004140   -0.000004140
       -0.000031488   -0.000031488
       -0.000231688   -0.000231688
       -0.001666726   -0.001666726
       -0.011531905   -0.011531905
       -0.070440499   -0.070440499
       -0.322429129   -0.322429129
       -0.972553210   -0.972553210
       -2.010500932   -2.010500932
       -3.299372050   -3.299372050
       -4.780853993   -4.780853993
       -6.364116919   -6.364116919
       -7.914278204   -7.914278204
       -9.312625540   -9.312625540
      -10.456034807  -10.456034807
      -11.219976956  -11.219976956
      -11.471137729  -11.471137729
      -11.138086825  -11.138086825
      -10.252697735  -10.252697735
       -8.937330692   -8.937330692
       -7.365545193   -7.365545193
       -5.715609645   -5.715609645
       -4.129302881   -4.129302881
       -2.703640237   -2.703640237
       -1.529637163   -1.529637163
       -0.701634141   -0.701634141
       -0.240120525   -0.240120525
       -0.053410627   -0.053410627
       -0.005015549   -0.005015549
       -0.000006344   -0.000006344
        0.000000000    0.000000000
       -0.000001407   -0.000001407
       -0.003651100   -0.003651100
       -0.043340349   -0.043340349
       -0.199906927   -0.199906927
       -0.594375533   -0.594375533
       -1.323135936   -1.323135936
       -2.397528051   -2.397528051
       -3.759789958   -3.759789958
       -5.332300993   -5.332300993
       -7.003051706   -7.003051706
       -8.600311717   -8.600311717
       -9.918932557   -9.918932557
      -10.776562279  -10.776562279
      -11.068522435  -11.068522435
      -10.796532254  -10.796532254
      -10.059456814  -10.059456814
       -8.948178610   -8.948178610
       -7.568792993   -7.568792993
       -6.027610332   -6.027610332
       -4.469803886   -4.469803886
       -3.047951185   -3.047951185
       -1.840777023   -1.840777023
       -0.881197079   -0.881197079
       -0.288031556   -0.288031556
       -0.062199048   -0.062199048
       -0.010158342   -0.010158342
       -0.001480323   -0.001480323
       -0.000209133   -0.000209133
       -0.000028976   -0.000028976
       -0.000003871   -0.000003871
       -0.000000486   -0.000000486
       -0.000000056   -0.000000056
       -0.000000006   -0.000000006
       -0.000000000   -0.000000000
       -0.000000000   -0.000000000
       -0.000000000   -0.000000000
       -0.000000000   -0.000000000
        0.000000000    0.000000000
        0.000000000    0.000000000
        0.000000000    0.000000000
        0.000000000    0.000000000
        0.000000000    0.000000000
        0.000000000    0.000000000
        0.000000000    0.000000000
        0.000000000    0.000000000
        0.000000000    0.000000000
        0.000000000    0.000000000
        0.000000000    0.000000000
        0.000000000    0.000000000
        0.000000000    0.000000000
        0.000000000    0.000000000
        0.000000000    0.000000000
        0.000000000    0.000000000
        0.000000000    0.000000000
        0.000000000    0.000000000
        0.000000000    0.000000000
        0.000000000    0.000000000
        0.000000000    0.000000000
        0.000000000    0.000000000
        0.000000000    0.000000000
        0.000000000    0.000000000
        0.000000000    0.000000000
        0.000000000    0.000000000
        0.000000000    0.000000000
        0.000000000    0.000000000
        0.000000000    0.000000000
        0.000000000    0.000000000
        0.000000000    0.000000000
        0.000000000    0.000000000
        0.000000000    0.000000000
        0.000000000    0.000000000