
     Program PWSCF v.6.0 (svn rev. 13079) starts on  5Apr2018 at 12:12:21 

     This program is part of the open-source Quantum ESPRESSO suite
     for quantum simulation of materials; please cite
         "P. Giannozzi et al., J. Phys.:Condens. Matter 21 395502 (2009);
          URL http://www.quantum-espresso.org", 
     in publications or presentations arising from this work. More details at
     http://www.quantum-espresso.org/quote

     Parallel version (MPI), running on    32 processors
     K-points division:     npool     =       8
     R & G space division:  proc/nbgrp/npool/nimage =       4
     Waiting for input...
     Reading input from standard input

     Current dimensions of program PWSCF are:
     Max number of different atomic species (ntypx) = 10
     Max number of k-points (npk) =  40000
     Max angular momentum in pseudopotentials (lmaxx) =  3

     Subspace diagonalization in iterative solution of the eigenvalue problem:
     a serial algorithm will be used


     Parallelization info
     --------------------
     sticks:   dense  smooth     PW     G-vecs:    dense   smooth      PW
     Min          70      70     22                  779      779     152
     Max          71      71     23                  780      780     153
     Sum         283     283     91                 3119     3119     609



     bravais-lattice index     =            2
     lattice parameter (alat)  =      10.5995  a.u.
     unit-cell volume          =     297.7100 (a.u.)^3
     number of atoms/cell      =            2
     number of atomic types    =            1
     number of electrons       =         8.00
     number of Kohn-Sham states=            4
     kinetic-energy cutoff     =      18.0000  Ry
     charge density cutoff     =      72.0000  Ry
     convergence threshold     =      1.0E-12
     mixing beta               =       0.7000
     number of iterations used =            8  plain     mixing
     Exchange-correlation      = SLA-PW ( 1  4  0  0 0 0)

     celldm(1)=  10.599478  celldm(2)=   0.000000  celldm(3)=   0.000000
     celldm(4)=   0.000000  celldm(5)=   0.000000  celldm(6)=   0.000000

     crystal axes: (cart. coord. in units of alat)
               a(1) = (  -0.500000   0.000000   0.500000 )  
               a(2) = (   0.000000   0.500000   0.500000 )  
               a(3) = (  -0.500000   0.500000   0.000000 )  

     reciprocal axes: (cart. coord. in units 2 pi/alat)
               b(1) = ( -1.000000 -1.000000  1.000000 )  
               b(2) = (  1.000000  1.000000  1.000000 )  
               b(3) = ( -1.000000  1.000000 -1.000000 )  


     PseudoPot. # 1 for Si read from file:
     ./Si.pw-mt_fhi_spd.UPF
     MD5 check sum: 9261c865ef18698f1e7526e9bb803039
     Pseudo is Norm-conserving, Zval =  4.0
     Generated using FHI98PP, converted with fhi2upf.x v.5.0.1
     Using radial grid of  495 points,  3 beta functions with: 
                l(1) =   0
                l(2) =   1
                l(3) =   3

     atomic species   valence    mass     pseudopotential
        Si             4.00    28.08600     Si( 1.00)

     48 Sym. Ops., with inversion, found (24 have fractional translation)



   Cartesian axes

     site n.     atom                  positions (alat units)
         1           Si  tau(   1) = (   0.0000000   0.0000000   0.0000000  )
         2           Si  tau(   2) = (   0.2500000   0.2500000   0.2500000  )

     number of k points=    10
                       cart. coord. in units 2pi/alat
        k(    1) = (  -0.1250000   0.1250000   0.1250000), wk =   0.0625000
        k(    2) = (  -0.3750000   0.3750000  -0.1250000), wk =   0.1875000
        k(    3) = (   0.3750000  -0.3750000   0.6250000), wk =   0.1875000
        k(    4) = (   0.1250000  -0.1250000   0.3750000), wk =   0.1875000
        k(    5) = (  -0.1250000   0.6250000   0.1250000), wk =   0.1875000
        k(    6) = (   0.6250000  -0.1250000   0.8750000), wk =   0.3750000
        k(    7) = (   0.3750000   0.1250000   0.6250000), wk =   0.3750000
        k(    8) = (  -0.1250000  -0.8750000   0.1250000), wk =   0.1875000
        k(    9) = (  -0.3750000   0.3750000   0.3750000), wk =   0.0625000
        k(   10) = (   0.3750000  -0.3750000   1.1250000), wk =   0.1875000

     Dense  grid:     3119 G-vectors     FFT dimensions: (  24,  24,  24)

     Estimated max dynamical RAM per process >       0.63Mb

     Estimated total allocated dynamical RAM >      20.22Mb

     Initial potential from superposition of free atoms

     starting charge    7.99872, renormalised to    8.00000
     Starting wfc are   18 randomized atomic wfcs

     total cpu time spent up to now is        0.6 secs

     per-process dynamical memory:    14.9 Mb

     Self-consistent Calculation

     iteration #  1     ecut=    18.00 Ry     beta=0.70
     Davidson diagonalization with overlap
     ethr =  1.00E-02,  avg # of iterations =  1.9

     Threshold (ethr) on eigenvalues was too large:
     Diagonalizing with lowered threshold

     Davidson diagonalization with overlap
     ethr =  6.13E-04,  avg # of iterations =  1.0

     total cpu time spent up to now is        0.6 secs

     total energy              =     -15.85848050 Ry
     Harris-Foulkes estimate   =     -15.87304957 Ry
     estimated scf accuracy    <       0.04979724 Ry

     iteration #  2     ecut=    18.00 Ry     beta=0.70
     Davidson diagonalization with overlap
     ethr =  6.22E-04,  avg # of iterations =  1.0

     total cpu time spent up to now is        0.6 secs

     total energy              =     -15.86012911 Ry
     Harris-Foulkes estimate   =     -15.86047394 Ry
     estimated scf accuracy    <       0.00221416 Ry

     iteration #  3     ecut=    18.00 Ry     beta=0.70
     Davidson diagonalization with overlap
     ethr =  2.77E-05,  avg # of iterations =  2.2

     total cpu time spent up to now is        0.6 secs

     total energy              =     -15.86045467 Ry
     Harris-Foulkes estimate   =     -15.86047511 Ry
     estimated scf accuracy    <       0.00004564 Ry

     iteration #  4     ecut=    18.00 Ry     beta=0.70
     Davidson diagonalization with overlap
     ethr =  5.70E-07,  avg # of iterations =  2.6

     total cpu time spent up to now is        0.6 secs

     total energy              =     -15.86047011 Ry
     Harris-Foulkes estimate   =     -15.86047125 Ry
     estimated scf accuracy    <       0.00000295 Ry

     iteration #  5     ecut=    18.00 Ry     beta=0.70
     Davidson diagonalization with overlap
     ethr =  3.69E-08,  avg # of iterations =  2.1

     total cpu time spent up to now is        0.6 secs

     total energy              =     -15.86047056 Ry
     Harris-Foulkes estimate   =     -15.86047058 Ry
     estimated scf accuracy    <       0.00000004 Ry

     iteration #  6     ecut=    18.00 Ry     beta=0.70
     Davidson diagonalization with overlap
     ethr =  5.42E-10,  avg # of iterations =  2.7

     total cpu time spent up to now is        0.7 secs

     total energy              =     -15.86047058 Ry
     Harris-Foulkes estimate   =     -15.86047058 Ry
     estimated scf accuracy    <          4.4E-10 Ry

     iteration #  7     ecut=    18.00 Ry     beta=0.70
     Davidson diagonalization with overlap
     ethr =  5.54E-12,  avg # of iterations =  3.2

     total cpu time spent up to now is        0.7 secs

     total energy              =     -15.86047058 Ry
     Harris-Foulkes estimate   =     -15.86047058 Ry
     estimated scf accuracy    <          2.9E-11 Ry

     iteration #  8     ecut=    18.00 Ry     beta=0.70
     Davidson diagonalization with overlap
     ethr =  3.61E-13,  avg # of iterations =  2.3

     total cpu time spent up to now is        0.7 secs

     total energy              =     -15.86047058 Ry
     Harris-Foulkes estimate   =     -15.86047058 Ry
     estimated scf accuracy    <          1.1E-12 Ry

     iteration #  9     ecut=    18.00 Ry     beta=0.70
     Davidson diagonalization with overlap
     ethr =  1.00E-13,  avg # of iterations =  1.0

     total cpu time spent up to now is        0.7 secs

     End of self-consistent calculation

          k =-0.1250 0.1250 0.1250 (   369 PWs)   bands (ev):

    -6.0734   3.4636   4.8038   4.8038

          k =-0.3750 0.3750-0.1250 (   382 PWs)   bands (ev):

    -5.1144   0.5982   2.9267   4.3425

          k = 0.3750-0.3750 0.6250 (   385 PWs)   bands (ev):

    -4.0671  -1.3259   2.9134   3.6275

          k = 0.1250-0.1250 0.3750 (   378 PWs)   bands (ev):

    -5.5792   1.8829   3.8680   3.8854

          k =-0.1250 0.6250 0.1250 (   386 PWs)   bands (ev):

    -4.6147   0.2120   2.6184   3.0480

          k = 0.6250-0.1250 0.8750 (   388 PWs)   bands (ev):

    -3.0977  -1.6354   1.3724   2.3780

          k = 0.3750 0.1250 0.6250 (   386 PWs)   bands (ev):

    -4.2327  -0.5701   2.0016   3.3033

          k =-0.1250-0.8750 0.1250 (   385 PWs)   bands (ev):

    -3.2405  -1.5520   1.9403   2.6084

          k =-0.3750 0.3750 0.3750 (   386 PWs)   bands (ev):

    -4.7151  -0.5827   4.0563   4.0563

          k = 0.3750-0.3750 1.1250 (   389 PWs)   bands (ev):

    -3.6027  -1.3074   1.4026   3.3343

     highest occupied level (ev):     4.8038

!    total energy              =     -15.86047058 Ry
     Harris-Foulkes estimate   =     -15.86047058 Ry
     estimated scf accuracy    <          1.3E-14 Ry

     The total energy is the sum of the following terms:

     one-electron contribution =       3.91245219 Ry
     hartree contribution      =       1.17689431 Ry
     xc contribution           =      -4.68698435 Ry
     ewald contribution        =     -16.26283273 Ry

     convergence has been achieved in   9 iterations

     Writing output data file silicon.save

     init_run     :      0.04s CPU      0.34s WALL (       1 calls)
     electrons    :      0.06s CPU      0.08s WALL (       1 calls)

     Called by init_run:
     wfcinit      :      0.00s CPU      0.15s WALL (       1 calls)
     potinit      :      0.00s CPU      0.00s WALL (       1 calls)

     Called by electrons:
     c_bands      :      0.03s CPU      0.04s WALL (      10 calls)
     sum_band     :      0.02s CPU      0.02s WALL (      10 calls)
     v_of_rho     :      0.01s CPU      0.01s WALL (      10 calls)
     mix_rho      :      0.00s CPU      0.01s WALL (      10 calls)

     Called by c_bands:
     init_us_2    :      0.00s CPU      0.00s WALL (      42 calls)
     cegterg      :      0.02s CPU      0.03s WALL (      20 calls)

     Called by sum_band:

     Called by *egterg:
     h_psi        :      0.02s CPU      0.05s WALL (      67 calls)
     g_psi        :      0.00s CPU      0.00s WALL (      45 calls)
     cdiaghg      :      0.00s CPU      0.12s WALL (      63 calls)

     Called by h_psi:
     h_psi:pot    :      0.02s CPU      0.05s WALL (      67 calls)
     h_psi:calbec :      0.00s CPU      0.03s WALL (      67 calls)
     vloc_psi     :      0.02s CPU      0.02s WALL (      67 calls)
     add_vuspsi   :      0.00s CPU      0.00s WALL (      67 calls)

     General routines
     calbec       :      0.00s CPU      0.03s WALL (      67 calls)
     fft          :      0.00s CPU      0.14s WALL (      41 calls)
     fftw         :      0.02s CPU      0.02s WALL (     588 calls)
     davcio       :      0.00s CPU      0.00s WALL (       2 calls)

     Parallel routines
     fft_scatter  :      0.00s CPU      0.01s WALL (     629 calls)

     PWSCF        :     0.17s CPU         0.72s WALL


   This run was terminated on:  12:12:22   5Apr2018            

=------------------------------------------------------------------------------=
   JOB DONE.
=------------------------------------------------------------------------------=
