<UPF version="2.0.1">
<PP_INFO>
Generated by new atomic code, or converted to UPF format
Author:
Generation date:
Pseudopotential type: NC
Element: As
Functional:  SLA  PZ   NOGX NOGC
Suggested minimum cutoff for wavefunctions:   0. Ry
Suggested minimum cutoff for charge density:   0. Ry
The Pseudo was generated with a Scalar-Relativistic Calculation
L component and cutoff radius for Local Potential:  0   0.0000
Valence configuration:
nl pn  l   occ       Rcut    Rcut US       E pseu
4S  0  0  2.00      0.000      0.000     0.000000
4P  0  1  3.00      0.000      0.000     0.000000
Generation configuration: not available.
</PP_INFO>
<!--
END OF HUMAN READABLE SECTION
-->
<PP_HEADER generated="Generated by new atomic code, or converted to UPF format" author="" date="" comment="" element="As" pseudo_type="NC" relativistic="scalar" is_ultrasoft="false" is_paw="false" is_coulomb="false" has_so="false" has_wfc="false" has_gipaw="false" paw_as_gipaw="false" core_correction="false" functional=" SLA  PZ   NOGX NOGC" z_valence="5.000000000000e0" total_psenergy="0.000000000000e0" wfc_cutoff="0.000000000000e0" rho_cutoff="0.000000000000e0" l_max="1" l_max_rho="0" l_local="0" mesh_size="525" number_of_wfc="2" number_of_proj="2"/>
<PP_MESH dx="2.500000000000e-2" mesh="525" xmin="-5.000000000002e0" rmax="9.983236591770e1" zmesh="3.300000000000e1">
<PP_R>
2.041802120930000e-4 2.093490587710000e-4 2.146487554260000e-4 2.200826145400000e-4
2.256540324520000e-4 2.313664914810000e-4 2.372235620980000e-4 2.432289051630000e-4
2.493862742130000e-4 2.556995178019999e-4 2.621725819130000e-4 2.688095124220000e-4
2.756144576270001e-4 2.825916708400000e-4 2.897455130470000e-4 2.970804556310000e-4
3.046010831709999e-4 3.123120963030000e-4 3.202183146619999e-4 3.283246798920000e-4
3.366362587350000e-4 3.451582461970000e-4 3.538959687999999e-4 3.628548879030000e-4
3.720406031230000e-4 3.814588558310000e-4 3.911155327420000e-4 4.010166695919999e-4
4.111684549150000e-4 4.215772339070000e-4 4.322495123940000e-4 4.431919608969999e-4
4.544114188020000e-4 4.659148986370000e-4 4.777095904500000e-4 4.898028663080000e-4
5.022022849020001e-4 5.149155962720000e-4 5.279507466510001e-4 5.413158834340001e-4
5.550193602650001e-4 5.690697422630000e-4 5.834758113750000e-4 5.982465718629999e-4
6.133912559330001e-4 6.289193295060000e-4 6.448404981330000e-4 6.611647130620000e-4
6.779021774600000e-4 6.950633527860001e-4 7.126589653340000e-4 7.307000129340001e-4
7.491977718280001e-4 7.681638037190000e-4 7.876099629930000e-4 8.075484041319999e-4
8.279915893120000e-4 8.489522961890000e-4 8.704436258859999e-4 8.924790111850001e-4
9.150722249190000e-4 9.382373885810001e-4 9.619889811540002e-4 9.863418481550001e-4
1.011311210920000e-3 1.036912676110000e-3 1.063162245480000e-3 1.090076325860000e-3
1.117671739430000e-3 1.145965734220000e-3 1.174975994900000e-3 1.204720653820000e-3
1.235218302370000e-3 1.266488002570000e-3 1.298549299000000e-3 1.331422231010000e-3
1.365127345260000e-3 1.399685708540000e-3 1.435118920940000e-3 1.471449129390000e-3
1.508699041450000e-3 1.546891939520000e-3 1.586051695410000e-3 1.626202785230000e-3
1.667370304740000e-3 1.709579984960000e-3 1.752858208330000e-3 1.797232025130000e-3
1.842729170460000e-3 1.889378081510000e-3 1.937207915350000e-3 1.986248567210000e-3
2.036530689080000e-3 2.088085708930000e-3 2.140945850320000e-3 2.195144152550000e-3
2.250714491340000e-3 2.307691599960000e-3 2.366111090940000e-3 2.426009478390001e-3
2.487424200720000e-3 2.550393644160000e-3 2.614957166650000e-3 2.681155122490000e-3
2.749028887560000e-3 2.818620885170000e-3 2.889974612590000e-3 2.963134668220000e-3
3.038146779480000e-3 3.115057831370000e-3 3.193915895810000e-3 3.274770261660000e-3
3.357671465530000e-3 3.442671323360000e-3 3.529822962829999e-3 3.619180856570000e-3
3.710800856150000e-3 3.804740227070000e-3 3.901057684480000e-3 3.999813429930000e-3
4.101069188990000e-3 4.204888249790000e-3 4.311335502620000e-3 4.420477480490001e-3
4.532382400690000e-3 4.647120207420000e-3 4.764762615560000e-3 4.885383155450000e-3
5.009057218840000e-3 5.135862106040000e-3 5.265877074259999e-3 5.399183387060001e-3
5.535864365230000e-3 5.676005438850000e-3 5.819694200630000e-3 5.967020460730001e-3
6.118076302870000e-3 6.272956141850000e-3 6.431756782630000e-3 6.594577480760000e-3
6.761520004500000e-3 6.932688698340001e-3 7.108190548300000e-3 7.288135248740001e-3
7.472635270960000e-3 7.661805933479999e-3 7.855765474120000e-3 8.054635123910000e-3
8.258539182850001e-3 8.467605097620000e-3 8.681963541220000e-3 8.901748494650001e-3
9.127097330670001e-3 9.358150899640000e-3 9.595053617550001e-3 9.837953556310000e-3
1.008700253630000e-2 1.034235622120000e-2 1.060417421550000e-2 1.087262016380000e-2
1.114786185370000e-2 1.143007132010000e-2 1.171942495320000e-2 1.201610360830000e-2
1.232029271940000e-2 1.263218241450000e-2 1.295196763480000e-2 1.327984825650000e-2
1.361602921570000e-2 1.396072063630000e-2 1.431413796180000e-2 1.467650208960000e-2
1.504803950880000e-2 1.542898244270000e-2 1.581956899280000e-2 1.622004328850000e-2
1.663065563920000e-2 1.705166269110000e-2 1.748332758730000e-2 1.792592013230000e-2
1.837971696100000e-2 1.884500171110000e-2 1.932206520070000e-2 1.981120561000000e-2
2.031272866770000e-2 2.082694784220000e-2 2.135418453690000e-2 2.189476829220000e-2
2.244903699040000e-2 2.301733706740000e-2 2.360002372940000e-2 2.419746117450000e-2
2.481002282050000e-2 2.543809153850000e-2 2.608205989170000e-2 2.674233038140000e-2
2.741931569810000e-2 2.811343897970000e-2 2.882513407580000e-2 2.955484581900000e-2
3.030303030300000e-2 3.107015516740000e-2 3.185669989020000e-2 3.266315608740000e-2
3.349002782050000e-2 3.433783191110000e-2 3.520709826450000e-2 3.609837020040000e-2
3.701220479270000e-2 3.794917321790000e-2 3.890986111170000e-2 3.989486893540000e-2
4.090481235080000e-2 4.194032260550000e-2 4.300204692710000e-2 4.409064892780000e-2
4.520680901940000e-2 4.635122483830000e-2 4.752461168149999e-2 4.872770295410000e-2
4.996125062730000e-2 5.122602570850000e-2 5.252281872330000e-2 5.385244020949999e-2
5.521572122400000e-2 5.661351386160000e-2 5.804669178830000e-2 5.951615078700000e-2
6.102280931730000e-2 6.256760908990000e-2 6.415151565490000e-2 6.577551900560000e-2
6.744063419670000e-2 6.914790197969999e-2 7.089838945229999e-2 7.269319072629999e-2
7.453342761080000e-2 7.642025031389999e-2 7.835483816110001e-2 8.033840033280001e-2
8.237217662000001e-2 8.445743819900001e-2 8.659548842620001e-2 8.878766365250000e-2
9.103533405899999e-2 9.333990451270001e-2 9.570281544509999e-2 9.812554375270000e-2
1.006096037190000e-1 1.031565479630000e-1 1.057679684080000e-1 1.084454972760000e-1
1.111908081100000e-1 1.140056168180000e-1 1.168916827480000e-1 1.198508097850000e-1
1.228848474800000e-1 1.259956922050000e-1 1.291852883380000e-1 1.324556294830000e-1
1.358087597070000e-1 1.392467748270000e-1 1.427718237150000e-1 1.463861096400000e-1
1.500918916480000e-1 1.538914859750000e-1 1.577872674900000e-1 1.617816711840000e-1
1.658771936890000e-1 1.700763948390000e-1 1.743818992730000e-1 1.787963980700000e-1
1.833226504370000e-1 1.879634854270000e-1 1.927218037150000e-1 1.976005794040000e-1
2.026028618870000e-1 2.077317777550000e-1 2.129905327450000e-1 2.183824137520000e-1
2.239107908770000e-1 2.295791195340000e-1 2.353909426150000e-1 2.413498926980000e-1
2.474596943200000e-1 2.537241663070000e-1 2.601472241570000e-1 2.667328824910000e-1
2.734852575590000e-1 2.804085698150000e-1 2.875071465560000e-1 2.947854246230000e-1
3.022479531760000e-1 3.098993965390000e-1 3.177445371130000e-1 3.257882783660000e-1
3.340356478980000e-1 3.424918005840000e-1 3.511620217950000e-1 3.600517307000000e-1
3.691664836580000e-1 3.785119776850000e-1 3.880940540200000e-1 3.979187017720000e-1
4.079920616670000e-1 4.183204298810000e-1 4.289102619810000e-1 4.397681769570000e-1
4.509009613600000e-1 4.623155735410000e-1 4.740191480060000e-1 4.860189998680000e-1
4.983226294270001e-1 5.109377268510000e-1 5.238721769870000e-1 5.371340642869999e-1
5.507316778620000e-1 5.646735166640000e-1 5.789682947950000e-1 5.936249469570000e-1
6.086526340360000e-1 6.240607488240000e-1 6.398589218950001e-1 6.560570276220000e-1
6.726651903470000e-1 6.896937907130000e-1 7.071534721500000e-1 7.250551475269999e-1
7.434100059730000e-1 7.622295198730001e-1 7.815254520360000e-1 8.013098630470001e-1
8.215951188080000e-1 8.423938982630000e-1 8.637192013260000e-1 8.855843570070000e-1
9.080030317389999e-1 9.309892379240001e-1 9.545573426890000e-1 9.787220768670000e-1
1.003498544200000e0 1.028902230800000e0 1.054949014780000e0 1.081655176230000e0
1.109037407380000e0 1.137112823020000e0 1.165898971180000e0 1.195413844160000e0
1.225675889700000e0 1.256704022570000e0 1.288517636370000e0 1.321136615630000e0
1.354581348280000e0 1.388872738370000e0 1.424032219140000e0 1.460081766400000e0
1.497043912290000e0 1.534941759360000e0 1.573798994990000e0 1.613639906230000e0
1.654489394940000e0 1.696372993380000e0 1.739316880170000e0 1.783347896620000e0
1.828493563560000e0 1.874782098500000e0 1.922242433280000e0 1.970904232150000e0
2.020797910330000e0 2.071954652990000e0 2.124406434750000e0 2.178186039690000e0
2.233327081810000e0 2.289864026050000e0 2.347832209860000e0 2.407267865220000e0
2.468208141360000e0 2.530691127940000e0 2.594755878850000e0 2.660442436660000e0
2.727791857590000e0 2.796846237230000e0 2.867648736820000e0 2.940243610210000e0
3.014676231570000e0 3.090993123720000e0 3.169241987190000e0 3.249471730060000e0
3.331732498550000e0 3.416075708310000e0 3.502554076580000e0 3.591221655170000e0
3.682133864200000e0 3.775347526760000e0 3.870920904430000e0 3.968913733660000e0
4.069387263180000e0 4.172404292210000e0 4.278029209740000e0 4.386328034790000e0
4.497368457650000e0 4.611219882200000e0 4.727953469280000e0 4.847642181190000e0
4.970360827270000e0 5.096186110660000e0 5.225196676270000e0 5.357473159890000e0
5.493098238640000e0 5.632156682600000e0 5.774735407840000e0 5.920923530680000e0
6.070812423480000e0 6.224495771660000e0 6.382069632320000e0 6.543632494260000e0
6.709285339520000e0 6.879131706520000e0 7.053277754780000e0 7.231832331230000e0
7.414907038310000e0 7.602616303660000e0 7.795077451690000e0 7.992410776880000e0
8.194739618970001e0 8.402190440089999e0 8.614892903759999e0 8.832979955920001e0
9.056587908090000e0 9.285856522530000e0 9.520929099570001e0 9.761952567230001e0
1.000907757300000e1 1.026245857810000e1 1.052225395390000e1 1.078862608090000e1
1.106174145050000e1 1.134177076850000e1 1.162888906250000e1 1.192327579060000e1
1.222511495430000e1 1.253459521280000e1 1.285191000140000e1 1.317725765200000e1
1.351084151770000e1 1.385287009910000e1 1.420355717520000e1 1.456312193700000e1
1.493178912400000e1 1.530978916540000e1 1.569735832330000e1 1.609473884120000e1
1.650217909470000e1 1.691993374740000e1 1.734826390950000e1 1.778743730130000e1
1.823772842040000e1 1.869941871340000e1 1.917279675190000e1 1.965815841250000e1
2.015580706200000e1 2.066605374700000e1 2.118921738840000e1 2.172562498040000e1
2.227561179520000e1 2.283952159260000e1 2.341770683440000e1 2.401052890530000e1
2.461835833840000e1 2.524157504690000e1 2.588056856140000e1 2.653573827380000e1
2.720749368640000e1 2.789625466820000e1 2.860245171730000e1 2.932652622980000e1
3.006893077590000e1 3.083012938250000e1 3.161059782360000e1 3.241082391740000e1
3.323130783120000e1 3.407256239410000e1 3.493511341770001e1 3.581950002440000e1
3.672627498460001e1 3.765600506230000e1 3.860927136890000e1 3.958666972700000e1
4.058881104230000e1 4.161632168570001e1 4.266984388500000e1 4.375003612570000e1
4.485757356320000e1 4.599314844440000e1 4.715747054050000e1 4.835126759090000e1
4.957528575750000e1 5.083029009140001e1 5.211706501140000e1 5.343641479350000e1
5.478916407440000e1 5.617615836640001e1 5.759826458600000e1 5.905637159600000e1
6.055139076070001e1 6.208425651580001e1 6.365592695210001e1 6.526738441500000e1
6.691963611780000e1 6.861371477160001e1 7.035067923060000e1 7.213161515430000e1
7.395763568560000e1 7.582988214670000e1 7.774952475260000e1 7.971776334240001e1
8.173582812930000e1 8.380498046960000e1 8.592651365070001e1 8.810175370010001e1
9.033206021340000e1 9.261882720490000e1 9.496348397840000e1 9.736749602080002e1
9.983236591770002e1
</PP_R>
<PP_RAB>
5.104505302340000e-6 5.233726469279999e-6 5.366218885649999e-6 5.502065363500001e-6
5.641350811310000e-6 5.784162287020001e-6 5.930589052440000e-6 6.080722629089999e-6
6.234656855320000e-6 6.392487945040002e-6 6.554314547820001e-6 6.720237810550000e-6
6.890361440680001e-6 7.064791771009999e-6 7.243637826170000e-6 7.427011390770000e-6
7.615027079269999e-6 7.807802407579999e-6 8.005457866560000e-6 8.208116997299999e-6
8.415906468370002e-6 8.628956154930000e-6 8.847399219999998e-6 9.071372197580002e-6
9.301015078079999e-6 9.536471395780000e-6 9.777888318549998e-6 1.002541673980000e-5
1.027921137290000e-5 1.053943084770000e-5 1.080623780980000e-5 1.107979902240000e-5
1.136028547010000e-5 1.164787246590000e-5 1.194273976130000e-5 1.224507165770000e-5
1.255505712250000e-5 1.287288990680000e-5 1.319876866630000e-5 1.353289708580000e-5
1.387548400660000e-5 1.422674355660000e-5 1.458689528440000e-5 1.495616429660000e-5
1.533478139830000e-5 1.572298323770000e-5 1.612101245330000e-5 1.652911782650000e-5
1.694755443650000e-5 1.737658381960000e-5 1.781647413330000e-5 1.826750032330000e-5
1.872994429570000e-5 1.920409509300000e-5 1.969024907480000e-5 2.018871010330000e-5
2.069978973280000e-5 2.122380740470000e-5 2.176109064720000e-5 2.231197527960000e-5
2.287680562300000e-5 2.345593471450000e-5 2.404972452880000e-5 2.465854620390000e-5
2.528278027300001e-5 2.592281690280000e-5 2.657905613700000e-5 2.725190814650000e-5
2.794179348580000e-5 2.864914335550000e-5 2.937439987250000e-5 3.011801634559999e-5
3.088045755939999e-5 3.166220006430000e-5 3.246373247500000e-5 3.328555577530000e-5
3.412818363150000e-5 3.499214271340001e-5 3.587797302360001e-5 3.678622823489999e-5
3.771747603630000e-5 3.867229848800000e-5 3.965129238520000e-5 4.065506963090000e-5
4.168425761850000e-5 4.273949962410000e-5 4.382145520819999e-5 4.493080062840000e-5
4.606822926150000e-5 4.723445203760001e-5 4.843019788389999e-5 4.965621418030000e-5
5.091326722710000e-5 5.220214272320000e-5 5.352364625790001e-5 5.487860381380001e-5
5.626786228360001e-5 5.769228999889999e-5 5.915277727359999e-5 6.065023695960001e-5
6.218560501810001e-5 6.375984110400001e-5 6.537392916620000e-5 6.702887806220000e-5
6.872572218889999e-5 7.046552212929999e-5 7.224936531479998e-5 7.407836670560000e-5
7.595366948700000e-5 7.787644578429999e-5 7.984789739539999e-5 8.186925654149999e-5
8.394178663810001e-5 8.606678308390002e-5 8.824557407080000e-5 9.047952141420000e-5
9.277002140379999e-5 9.511850567669999e-5 9.752644211200002e-5 9.999533574840001e-5
1.025267297250000e-4 1.051222062450000e-4 1.077833875660000e-4 1.105119370120000e-4
1.133095600170000e-4 1.161780051860000e-4 1.191190653890000e-4 1.221345788860000e-4
1.252264304710000e-4 1.283965526510000e-4 1.316469268560000e-4 1.349795846760000e-4
1.383966091310000e-4 1.419001359710000e-4 1.454923550160000e-4 1.491755115180000e-4
1.529519075720000e-4 1.568239035460000e-4 1.607939195660000e-4 1.648644370190000e-4
1.690380001120000e-4 1.733172174590000e-4 1.777047637070000e-4 1.822033812180000e-4
1.868158817740000e-4 1.915451483370000e-4 1.963941368530000e-4 2.013658780980000e-4
2.064634795710000e-4 2.116901274400000e-4 2.170490885300000e-4 2.225437123660000e-4
2.281774332670000e-4 2.339537724910000e-4 2.398763404389999e-4 2.459488389080000e-4
2.521750634080000e-4 2.585589055310000e-4 2.651043553870000e-4 2.718155040950000e-4
2.786965463420000e-4 2.857517830020000e-4 2.929856238290001e-4 3.004025902080000e-4
3.080073179850000e-4 3.158045603630000e-4 3.237991908700000e-4 3.319962064130000e-4
3.404007303920000e-4 3.490180159080000e-4 3.578534490460000e-4 3.669125522390000e-4
3.762009877210000e-4 3.857245610660001e-4 3.954892248190001e-4 4.055010822110000e-4
4.157663909799999e-4 4.262915672780000e-4 4.370831896820000e-4 4.481480033080000e-4
4.594929240250000e-4 4.711250427770000e-4 4.830516300160000e-4 4.952801402500000e-4
5.078182166940000e-4 5.206736960539999e-4 5.338546134230000e-4 5.473692073050000e-4
5.612259247590000e-4 5.754334266859999e-4 5.900005932359999e-4 6.049365293630000e-4
6.202505705140000e-4 6.359522884620000e-4 6.520514972919999e-4 6.685582595340000e-4
6.854828924510001e-4 7.028359744910000e-4 7.206283518939999e-4 7.388711454759999e-4
7.575757575760001e-4 7.767538791849999e-4 7.964174972550000e-4 8.165789021850001e-4
8.372506955120000e-4 8.584457977780000e-4 8.801774566119999e-4 9.024592550089999e-4
9.253051198180000e-4 9.487293304480000e-4 9.727465277940000e-4 9.973717233850000e-4
1.022620308770000e-3 1.048508065140000e-3 1.075051173180000e-3 1.102266223200000e-3
1.130170225490000e-3 1.158780620960000e-3 1.188115292040000e-3 1.218192573850000e-3
1.249031265680000e-3 1.280650642710000e-3 1.313070468080000e-3 1.346311005240000e-3
1.380393030600000e-3 1.415337846540000e-3 1.451167294710000e-3 1.487903769670000e-3
1.525570232930000e-3 1.564190227250000e-3 1.603787891370000e-3 1.644387975140000e-3
1.686015854920000e-3 1.728697549490000e-3 1.772459736310000e-3 1.817329768160000e-3
1.863335690270000e-3 1.910506257850000e-3 1.958870954030001e-3 2.008460008320001e-3
2.059304415500000e-3 2.111435954970000e-3 2.164887210650000e-3 2.219691591310000e-3
2.275883351470000e-3 2.333497612820000e-3 2.392570386130000e-3 2.453138593820000e-3
2.515240092980000e-3 2.578913699080000e-3 2.644199210200000e-3 2.711137431900000e-3
2.779770202740000e-3 2.850140420450000e-3 2.922292068710000e-3 2.996270244640000e-3
3.072121187000000e-3 3.149892305120000e-3 3.229632208460000e-3 3.311390737070000e-3
3.395218992680000e-3 3.481169370690000e-3 3.569295592870001e-3 3.659652740990000e-3
3.752297291210000e-3 3.847287149380000e-3 3.944681687260000e-3 4.044541779600000e-3
4.146929842220000e-3 4.251909870980001e-3 4.359547481820000e-3 4.469909951759999e-3
4.583066260920000e-3 4.699087135690000e-3 4.818045092879999e-3 4.940014485100000e-3
5.065071547180001e-3 5.193294443859999e-3 5.324763318630001e-3 5.459560343800001e-3
5.597769771920000e-3 5.739477988360000e-3 5.884773565380000e-3 6.033747317450000e-3
6.186492358010000e-3 6.343104157670000e-3 6.503680603920001e-3 6.668322062260001e-3
6.837131438970000e-3 7.010214245380000e-3 7.187678663910001e-3 7.369635615580000e-3
7.556198829410000e-3 7.747484913480001e-3 7.943613427820001e-3 8.144706959150000e-3
8.350891197459999e-3 8.562295014609999e-3 8.779050544870000e-3 9.001293267499999e-3
9.229162091440001e-3 9.462799442130001e-3 9.702351350500001e-3 9.947967544310000e-3
1.019980154170000e-2 1.045801074700000e-2 1.072275654950000e-2 1.099420442390000e-2
1.127252403400000e-2 1.155788933850000e-2 1.185047870010000e-2 1.215047499670000e-2
1.245806573570000e-2 1.277344317130000e-2 1.309680442470000e-2 1.342835160720000e-2
1.376829194650000e-2 1.411683791660000e-2 1.447420736990000e-2 1.484062367390000e-2
1.521631585090000e-2 1.560151872060000e-2 1.599647304740000e-2 1.640142569050000e-2
1.681662975870000e-2 1.724234476780000e-2 1.767883680370000e-2 1.812637868820000e-2
1.858525014930000e-2 1.905573799680000e-2 1.953813630090000e-2 2.003274657620000e-2
2.053987797020000e-2 2.105984745660000e-2 2.159298003320000e-2 2.213960892520000e-2
2.270007579350000e-2 2.327473094810000e-2 2.386393356720000e-2 2.446805192170000e-2
2.508746360510000e-2 2.572255576990000e-2 2.637372536940000e-2 2.704137940580000e-2
2.772593518460000e-2 2.842782057550000e-2 2.914747427960000e-2 2.988534610390000e-2
3.064189724250000e-2 3.141760056430000e-2 3.221294090910000e-2 3.302841539070000e-2
3.386453370700000e-2 3.472181845930000e-2 3.560080547850000e-2 3.650204415990000e-2
3.742609780720000e-2 3.837354398400000e-2 3.934497487490000e-2 4.034099765590000e-2
4.136223487360001e-2 4.240932483460000e-2 4.348292200410000e-2 4.458369741539999e-2
4.571233908890000e-2 4.686955246240000e-2 4.805606083190000e-2 4.927260580380000e-2
5.051994775830000e-2 5.179886632470000e-2 5.311016086870000e-2 5.445465099220001e-2
5.583317704510000e-2 5.724660065130001e-2 5.869580524640000e-2 6.018169663050000e-2
6.170520353410001e-2 6.326727819849999e-2 6.486889697139999e-2 6.651106091650000e-2
6.819479643979999e-2 6.992115593080000e-2 7.169121842039999e-2 7.350609025530000e-2
7.536690578930000e-2 7.727482809300001e-2 7.923104967960000e-2 8.123679325150000e-2
8.329331246370000e-2 8.540189270760001e-2 8.756385191450001e-2 8.978054137930000e-2
9.205334660510001e-2 9.438368816910002e-2 9.677302261059999e-2 9.922284334150000e-2
1.017346815790000e-1 1.043101073050000e-1 1.069507302440000e-1 1.096582008700000e-1
1.124342114410000e-1 1.152804970550000e-1 1.181988367320000e-1 1.211910545300000e-1
1.242590206820000e-1 1.274046527670000e-1 1.306299169070000e-1 1.339368289970000e-1
1.373274559660000e-1 1.408039170650000e-1 1.443683851960000e-1 1.480230882670000e-1
1.517703105870000e-1 1.556123942920000e-1 1.595517408080000e-1 1.635908123570000e-1
1.677321334880000e-1 1.719782926630000e-1 1.763319438690000e-1 1.807958082810000e-1
1.853726759580000e-1 1.900654075920000e-1 1.948769362920000e-1 1.998102694220000e-1
2.048684904740000e-1 2.100547610020000e-1 2.153723225940000e-1 2.208244988980000e-1
2.264146977020000e-1 2.321464130630000e-1 2.380232274890000e-1 2.440488141810000e-1
2.502269393250000e-1 2.565614644530000e-1 2.630563488480000e-1 2.697156520230000e-1
2.765435362620000e-1 2.835442692120000e-1 2.907222265610000e-1 2.980818947660000e-1
3.056278738580000e-1 3.133648803200000e-1 3.212977500340000e-1 3.294314413000000e-1
3.377710379410000e-1 3.463217524760000e-1 3.550889293810000e-1 3.640780484250000e-1
3.732947281010000e-1 3.827447291340000e-1 3.924339580820000e-1 4.023684710290000e-1
4.125544773680000e-1 4.229983436860000e-1 4.337065977380000e-1 4.446859325320000e-1
4.559432105090000e-1 4.674854678350000e-1 4.793199187970000e-1 4.914539603110001e-1
5.038951765489999e-1 5.166513436750000e-1 5.297304347090001e-1 5.431406245090001e-1
5.568902948800000e-1 5.709880398140000e-1 5.854426708600000e-1 6.002632226330000e-1
6.154589584600000e-1 6.310393761720000e-1 6.470142140350000e-1 6.633934568440000e-1
6.801873421590000e-1 6.974063667050000e-1 7.150612929330000e-1 7.331631557460000e-1
7.517232693980000e-1 7.707532345640001e-1 7.902649455910000e-1 8.102705979350000e-1
8.307826957790001e-1 8.518140598520000e-1 8.733778354420000e-1 8.954875006100000e-1
9.181568746160000e-1 9.414001265570000e-1 9.652317842220000e-1 9.896667431740001e-1
1.014720276060000e0 1.040408042140000e0 1.066746097120000e0 1.093750903140000e0
1.121439339080000e0 1.149828711110000e0 1.178936763510000e0 1.208781689770000e0
1.239382143940000e0 1.270757252290000e0 1.302926625280000e0 1.335910369840000e0
1.369729101860000e0 1.404403959160000e0 1.439956614650000e0 1.476409289900000e0
1.513784769020000e0 1.552106412890000e0 1.591398173800000e0 1.631684610380000e0
1.672990902940000e0 1.715342869290000e0 1.758766980770000e0 1.803290378860000e0
1.848940892140000e0 1.895747053670000e0 1.943738118810000e0 1.992944083560000e0
2.043395703230000e0 2.095124511740000e0 2.148162841270000e0 2.202543842500000e0
2.258301505330000e0 2.315470680120000e0 2.374087099460000e0 2.434187400520000e0
2.495809147940000e0
</PP_RAB>
</PP_MESH>
<PP_LOCAL columns="4">
-4.832431593950000e0 -4.832431605930000e0 -4.832431618490000e0 -4.832431631740000e0
-4.832431645610000e0 -4.832431660240000e0 -4.832431675580000e0 -4.832431691730000e0
-4.832431708770000e0 -4.832431726600000e0 -4.832431745340000e0 -4.832431765110000e0
-4.832431785850000e0 -4.832431807660000e0 -4.832431830550000e0 -4.832431854650000e0
-4.832431880030000e0 -4.832431906670000e0 -4.832431934650000e0 -4.832431964080000e0
-4.832431995010000e0 -4.832432027560000e0 -4.832432061760000e0 -4.832432097730000e0
-4.832432135500000e0 -4.832432175260000e0 -4.832432217030000e0 -4.832432260930000e0
-4.832432307100000e0 -4.832432355620000e0 -4.832432406660000e0 -4.832432460310000e0
-4.832432516670000e0 -4.832432575960000e0 -4.832432638260000e0 -4.832432703790000e0
-4.832432772630000e0 -4.832432845070000e0 -4.832432921190000e0 -4.832433001210000e0
-4.832433085300000e0 -4.832433173740000e0 -4.832433266680000e0 -4.832433364460000e0
-4.832433467170000e0 -4.832433575180000e0 -4.832433688720000e0 -4.832433808120000e0
-4.832433933590000e0 -4.832434065540000e0 -4.832434204220000e0 -4.832434350050000e0
-4.832434503330000e0 -4.832434664460000e0 -4.832434833840000e0 -4.832435011910000e0
-4.832435199130000e0 -4.832435395920000e0 -4.832435602820000e0 -4.832435820340000e0
-4.832436049020000e0 -4.832436289400000e0 -4.832436542130000e0 -4.832436807800000e0
-4.832437087030000e0 -4.832437380640000e0 -4.832437689320000e0 -4.832438013810000e0
-4.832438354930000e0 -4.832438713570000e0 -4.832439090530000e0 -4.832439486860000e0
-4.832439903510000e0 -4.832440341550000e0 -4.832440802010000e0 -4.832441286080000e0
-4.832441794950000e0 -4.832442329960000e0 -4.832442892370000e0 -4.832443483570000e0
-4.832444105170000e0 -4.832444758590000e0 -4.832445445540000e0 -4.832446167690000e0
-4.832446926870000e0 -4.832447724940000e0 -4.832448563950000e0 -4.832449446010000e0
-4.832450373240000e0 -4.832451348040000e0 -4.832452372840000e0 -4.832453450170000e0
-4.832454582720000e0 -4.832455773360000e0 -4.832457024990000e0 -4.832458340860000e0
-4.832459724110000e0 -4.832461178390000e0 -4.832462707170000e0 -4.832464314310000e0
-4.832466003850000e0 -4.832467780050000e0 -4.832469647330000e0 -4.832471610320000e0
-4.832473673910000e0 -4.832475843340000e0 -4.832478124030000e0 -4.832480521570000e0
-4.832483042090000e0 -4.832485691860000e0 -4.832488477410000e0 -4.832491405850000e0
-4.832494484350000e0 -4.832497720760000e0 -4.832501123020000e0 -4.832504699790000e0
-4.832508459900000e0 -4.832512412770000e0 -4.832516568340000e0 -4.832520936930000e0
-4.832525529480000e0 -4.832530357520000e0 -4.832535433080000e0 -4.832540768840000e0
-4.832546378150000e0 -4.832552275020000e0 -4.832558474230000e0 -4.832564991280000e0
-4.832571842420000e0 -4.832579044800000e0 -4.832586616460000e0 -4.832594576290000e0
-4.832602944140000e0 -4.832611741040000e0 -4.832620988890000e0 -4.832630710840000e0
-4.832640931200000e0 -4.832651675460000e0 -4.832662970610000e0 -4.832674844760000e0
-4.832687327630000e0 -4.832700450450000e0 -4.832714245930000e0 -4.832728748700000e0
-4.832743994850000e0 -4.832760022640000e0 -4.832776871990000e0 -4.832794585090000e0
-4.832813206170000e0 -4.832832781780000e0 -4.832853360800000e0 -4.832874994750000e0
-4.832897737620000e0 -4.832921646230000e0 -4.832946780410000e0 -4.832973202860000e0
-4.833000979580000e0 -4.833030180040000e0 -4.833060877200000e0 -4.833093147710000e0
-4.833127072160000e0 -4.833162735300000e0 -4.833200226210000e0 -4.833239638550000e0
-4.833281070760000e0 -4.833324626240000e0 -4.833370413880000e0 -4.833418547850000e0
-4.833469148430000e0 -4.833522341950000e0 -4.833578261170000e0 -4.833637045700000e0
-4.833698842210000e0 -4.833763805000000e0 -4.833832096150000e0 -4.833903886010000e0
-4.833979353760000e0 -4.834058687700000e0 -4.834142085580000e0 -4.834229755530000e0
-4.834321916120000e0 -4.834418797170000e0 -4.834520640090000e0 -4.834627698900000e0
-4.834740240330000e0 -4.834858544760000e0 -4.834982906980000e0 -4.835113636820000e0
-4.835251059680000e0 -4.835395517880000e0 -4.835547370950000e0 -4.835706996810000e0
-4.835874792600000e0 -4.836051175800000e0 -4.836236584890000e0 -4.836431480980000e0
-4.836636348350000e0 -4.836851696020000e0 -4.837078058900000e0 -4.837315999020000e0
-4.837566106940000e0 -4.837829003210000e0 -4.838105339840000e0 -4.838395801800000e0
-4.838701108930000e0 -4.839022017320000e0 -4.839359321450000e0 -4.839713855890000e0
-4.840086497340000e0 -4.840478166790000e0 -4.840889831740000e0 -4.841322508270000e0
-4.841777263800000e0 -4.842255219390000e0 -4.842757552210000e0 -4.843285498830000e0
-4.843840357690000e0 -4.844423492110000e0 -4.845036333890000e0 -4.845680386040000e0
-4.846357226740000e0 -4.847068512680000e0 -4.847815983050000e0 -4.848601463240000e0
-4.849426869350000e0 -4.850294212070000e0 -4.851205601450000e0 -4.852163251640000e0
-4.853169485590000e0 -4.854226740350000e0 -4.855337572250000e0 -4.856504662500000e0
-4.857730822940000e0 -4.859019001950000e0 -4.860372290860000e0 -4.861793930170000e0
-4.863287316610000e0 -4.864856009660000e0 -4.866503739020000e0 -4.868234411990000e0
-4.870052121240000e0 -4.871961152760000e0 -4.873965993920000e0 -4.876071342250000e0
-4.878282113760000e0 -4.880603452110000e0 -4.883040737970000e0 -4.885599597960000e0
-4.888285914700000e0 -4.891105836320000e0 -4.894065786780000e0 -4.897172475540000e0
-4.900432908140000e0 -4.903854396580000e0 -4.907444569550000e0 -4.911211383030000e0
-4.915163130470000e0 -4.919308453390000e0 -4.923656351430000e0 -4.928216192240000e0
-4.932997721420000e0 -4.938011071500000e0 -4.943266771120000e0 -4.948775753250000e0
-4.954549362530000e0 -4.960599362470000e0 -4.966937940970000e0 -4.973577715220000e0
-4.980531735230000e0 -4.987813485520000e0 -4.995436885830000e0 -5.003416289380000e0
-5.011766479350000e0 -5.020502662650000e0 -5.029640461710000e0 -5.039195902580000e0
-5.049185400570000e0 -5.059625741750000e0 -5.070534060990000e0 -5.081927815790000e0
-5.093824755350000e0 -5.106242884890000e0 -5.119200424750000e0 -5.132715763820000e0
-5.146807406840000e0 -5.161493915540000e0 -5.176793843100000e0 -5.192725661560000e0
-5.209307682080000e0 -5.226557967730000e0 -5.244494239000000e0 -5.263133771200000e0
-5.282493285050000e0 -5.302588828950000e0 -5.323435655310000e0 -5.345048089420000e0
-5.367439392890000e0 -5.390621621830000e0 -5.414605481420000e0 -5.439400177720000e0
-5.465013268530000e0 -5.491450515640000e0 -5.518715739990000e0 -5.546810682910000e0
-5.575734875770000e0 -5.605485521150000e0 -5.636057389270000e0 -5.667442732190000e0
-5.699631219720000e0 -5.732609899520000e0 -5.766363185350000e0 -5.800872873810000e0
-5.836118192590000e0 -5.872075878500000e0 -5.908720284470000e0 -5.946023510360000e0
-5.983955550970000e0 -6.022484449470000e0 -6.061576442000000e0 -6.101196072450000e0