<UPF version="2.0.1">
<PP_INFO>
Generated by new atomic code, or converted to UPF format
Author:
Generation date:
Pseudopotential type: NC
Element: Ga
Functional:  SLA  PZ   NOGX NOGC
Suggested minimum cutoff for wavefunctions:   0. Ry
Suggested minimum cutoff for charge density:   0. Ry
The Pseudo was generated with a Scalar-Relativistic Calculation
L component and cutoff radius for Local Potential:  0   0.0000
Valence configuration:
nl pn  l   occ       Rcut    Rcut US       E pseu
4S  0  0  2.00      0.000      0.000     0.000000
4P  0  1  1.00      0.000      0.000     0.000000
Generation configuration: not available.
</PP_INFO>
<!--
END OF HUMAN READABLE SECTION
-->
<PP_HEADER generated="Generated by new atomic code, or converted to UPF format" author="" date="" comment="" element="Ga" pseudo_type="NC" relativistic="scalar" is_ultrasoft="false" is_paw="false" is_coulomb="false" has_so="false" has_wfc="false" has_gipaw="false" paw_as_gipaw="false" core_correction="false" functional=" SLA  PZ   NOGX NOGC" z_valence="3.000000000000e0" total_psenergy="0.000000000000e0" wfc_cutoff="0.000000000000e0" rho_cutoff="0.000000000000e0" l_max="1" l_max_rho="0" l_local="0" mesh_size="523" number_of_wfc="2" number_of_proj="2"/>
<PP_MESH dx="2.500000000000e-2" mesh="523" xmin="-4.999999999999e0" rmax="1.010901603640e2" zmesh="3.100000000000e1">
<PP_R>
2.173531290030000e-4 2.228554496600000e-4 2.284970622270000e-4 2.342814928970000e-4
2.402123571270000e-4 2.462933618990000e-4 2.525283080399999e-4 2.589210925930000e-4
2.654757112590000e-4 2.721962608860000e-4 2.790869420360000e-4 2.861520616110000e-4
2.933960355389999e-4 3.008233915400000e-4 3.084387719530000e-4 3.162469366390000e-4
3.242527659559999e-4 3.324612638060000e-4 3.408775607690000e-4 3.495069173040000e-4
3.583547270400000e-4 3.674265201460000e-4 3.767279667870000e-4 3.862648806710000e-4
3.960432226799999e-4 4.060691045950000e-4 4.163487929190000e-4 4.268887127920000e-4
4.376954520060000e-4 4.487757651270000e-4 4.601365777100000e-4 4.717849906320000e-4
4.837282845320000e-4 4.959739243560000e-4 5.085295640279998e-4 5.214030512310000e-4
5.346024323150001e-4 5.481359573220001e-4 5.620120851450000e-4 5.762394888169999e-4
5.908270609270000e-4 6.057839191830000e-4 6.211194121090000e-4 6.368431248870000e-4
6.529648853490000e-4 6.694947701190000e-4 6.864431109150000e-4 7.038205010010000e-4
7.216378018120000e-4 7.399061497400000e-4 7.586369630970000e-4 7.778419492520000e-4
7.975331119460000e-4 8.177227587980001e-4 8.384235089919999e-4 8.596483011730001e-4
8.814104015260000e-4 9.037234120720001e-4 9.266012791689999e-4 9.500583022289998e-4
9.741091426550000e-4 9.987688330060001e-4 1.024052786390000e-3 1.049976806100000e-3
1.076557095490000e-3 1.103810268120000e-3 1.131753358090000e-3 1.160403830760000e-3
1.189779593590000e-3 1.219899007400000e-3 1.250780897800000e-3 1.282444566970000e-3
1.314909805750000e-3 1.348196905970000e-3 1.382326673130000e-3 1.417320439460000e-3
1.453200077210000e-3 1.489988012310000e-3 1.527707238420000e-3 1.566381331290000e-3
1.606034463480000e-3 1.646691419490000e-3 1.688377611240000e-3 1.731119093960000e-3
1.774942582460000e-3 1.819875467860000e-3 1.865945834670000e-3 1.913182478370000e-3
1.961614923390000e-3 2.011273441600000e-3 2.062189071180000e-3 2.114393636070000e-3
2.167919765800000e-3 2.222800915960000e-3 2.279071389050000e-3 2.336766355940000e-3
2.395921877880000e-3 2.456574928989999e-3 2.518763419390000e-3 2.582526218930000e-3
2.647903181420000e-3 2.714935169590000e-3 2.783664080620000e-3 2.854132872330000e-3
2.926385589980000e-3 3.000467393890000e-3 3.076424587600000e-3 3.154304646820000e-3
3.234156249120001e-3 3.316029304360000e-3 3.399974985870000e-3 3.486045762410000e-3
3.574295431040000e-3 3.664779150670000e-3 3.757553476560000e-3 3.852676395700000e-3
3.950207363000000e-3 4.050207338490000e-3 4.152738825410001e-3 4.257865909280000e-3
4.365654297960000e-3 4.476171362679999e-3 4.589486180210000e-3 4.705669576010000e-3
4.824794168470000e-3 4.946934414349999e-3 5.072166655279999e-3 5.200569165480000e-3
5.332222200700000e-3 5.467208048370001e-3 5.605611079050000e-3 5.747517799130000e-3
5.893016904930000e-3 6.042199338130001e-3 6.195158342600000e-3 6.351989522720000e-3
6.512790903050001e-3 6.677662989709999e-3 6.846708833119999e-3 7.020034092430000e-3
7.197747101559999e-3 7.379958936940001e-3 7.566783486899999e-3 7.758337522850001e-3
7.954740772310000e-3 8.156115993699999e-3 8.362589053090000e-3 8.574289002870000e-3
8.791348162390001e-3 9.013902200690000e-3 9.242090221300002e-3 9.476054849150000e-3
9.715942319750003e-3 9.961902570580000e-3 1.021408933480000e-2 1.047266023740000e-2
1.073777689350000e-2 1.100960500970000e-2 1.128831448750000e-2 1.157407952920000e-2
1.186707874750000e-2 1.216749527620000e-2 1.247551688560000e-2 1.279133609920000e-2
1.311515031420000e-2 1.344716192510000e-2 1.378757845000000e-2 1.413661266020000e-2
1.449448271350000e-2 1.486141229030000e-2 1.523763073360000e-2 1.562337319210000e-2
1.601888076750000e-2 1.642440066480000e-2 1.684018634710000e-2 1.726649769420000e-2
1.770360116430000e-2 1.815176996150000e-2 1.861128420580000e-2 1.908243110860000e-2
1.956550515200000e-2 2.006080827310000e-2 2.056865005230000e-2 2.108934790740000e-2
2.162322729150000e-2 2.217062189650000e-2 2.273187386190000e-2 2.330733398850000e-2
2.389736195750000e-2 2.450232655560000e-2 2.512260590550000e-2 2.575858770190000e-2
2.641066945410000e-2 2.707925873450000e-2 2.776477343310000e-2 2.846764201890000e-2
2.918830380760000e-2 2.992720923640000e-2 3.068482014520000e-2 3.146161006540000e-2
3.225806451610000e-2 3.307468130720000e-2 3.391197085080000e-2 3.477045648010000e-2
3.565067477660000e-2 3.655317590540000e-2 3.747852395900000e-2 3.842729731010000e-2
3.940008897290000e-2 4.039750697390000e-2 4.142017473190000e-2 4.246873144730000e-2
4.354383250250000e-2 4.464614987030000e-2 4.577637253530000e-2 4.693520692320000e-2
4.812337734330000e-2 4.934162644080001e-2 5.059071566100000e-2 5.187142572530000e-2
5.318455711940000e-2 5.453093059290000e-2 5.591138767309999e-2 5.732679119080000e-2
5.877802581900000e-2 6.026599862679999e-2 6.179163964559999e-2 6.335590245059999e-2
6.495976475709999e-2 6.660422903120001e-2 6.829032311650001e-2 7.001910087690000e-2
7.179164285460001e-2 7.360905694610000e-2 7.547247909440000e-2 7.738307399890000e-2
7.934203584380000e-2 8.135058904380001e-2 8.340998901020001e-2 8.552152293490000e-2
8.768651059550001e-2 8.990630517950001e-2 9.218229413110000e-2 9.451590001720000e-2
9.690858141760000e-2 9.936183383610000e-2 1.018771906350000e-1 1.044562239950000e-1
1.071005458950000e-1 1.098118091220000e-1 1.125917083050000e-1 1.154419809710000e-1
1.183644086330000e-1 1.213608179030000e-1 1.244330816350000e-1 1.275831200940000e-1
1.308129021560000e-1 1.341244465410000e-1 1.375198230700000e-1 1.410011539650000e-1
1.445706151720000e-1 1.482304377200000e-1 1.519829091160000e-1 1.558303747780000e-1
1.597752394970000e-1 1.638199689410000e-1 1.679670911990000e-1 1.722191983570000e-1
1.765789481200000e-1 1.810490654740000e-1 1.856323443870000e-1 1.903316495590000e-1
1.951499182070000e-1 2.000901619070000e-1 2.051554684710000e-1 2.103490038820000e-1
2.156740142670000e-1 2.211338279320000e-1 2.267318574380000e-1 2.324716017360000e-1
2.383566483530000e-1 2.443906756330000e-1 2.505774550420000e-1 2.569208535170000e-1
2.634248358890000e-1 2.700934673590000e-1 2.769309160380000e-1 2.839414555540000e-1
2.911294677240000e-1 2.984994452870000e-1 3.060559947210000e-1 3.138038391150000e-1
3.217478211230000e-1 3.298929059930000e-1 3.382441846690000e-1 3.468068769700000e-1
3.555863348590000e-1 3.645880457830000e-1 3.738176361040000e-1 3.832808746160000e-1
3.929836761520000e-1 4.029321052780000e-1 4.131323800860000e-1 4.235908760800000e-1
4.343141301610000e-1 4.453088447120000e-1 4.565818917860000e-1 4.681403174060000e-1
4.799913459640000e-1 4.921423847370000e-1 5.046010285220000e-1 5.173750643760000e-1
5.304724764870000e-1 5.439014511640000e-1 5.576703819540000e-1 5.717878748860000e-1
5.862627538530000e-1 6.011040661260000e-1 6.163210880070000e-1 6.319233306320000e-1
6.479205459089999e-1 6.643227326190000e-1 6.811401426630001e-1 6.983832874680001e-1
7.160629445630001e-1 7.341901643070000e-1 7.527762768050001e-1 7.718328989800000e-1
7.913719418419999e-1 8.114056179300000e-1 8.319464489420000e-1 8.530072735670000e-1
8.746012555050001e-1 8.967418916989999e-1 9.194430207670001e-1 9.427188316530000e-1
9.665838724970000e-1 9.910530597259999e-1 1.016141687380000e0 1.041865436660000e0
1.068240385760000e0 1.095283019880000e0 1.123010241540000e0 1.151439381150000e0
1.180588207860000e0 1.210474940630000e0 1.241118259650000e0 1.272537317970000e0
1.304751753550000e0 1.337781701450000e0 1.371647806450000e0 1.406371235990000e0
1.441973693330000e0 1.478477431170000e0 1.515905265530000e0 1.554280590040000e0
1.593627390500000e0 1.633970259960000e0 1.675334414030000e0 1.717745706640000e0
1.761230646230000e0 1.805816412310000e0 1.851530872430000e0 1.898402599620000e0
1.946460890240000e0 1.995735782270000e0 2.046258074130000e0 2.098059343900000e0
2.151171969060000e0 2.205629146730000e0 2.261464914410000e0 2.318714171280000e0
2.377412699990000e0 2.437597189020000e0 2.499305255650000e0 2.562575469430000e0
2.627447376290000e0 2.693961523290000e0 2.762159483940000e0 2.832083884190000e0
2.903778429050000e0 2.977287929960000e0 3.052658332740000e0 3.129936746350000e0
3.209171472320000e0 3.290412034930000e0 3.373709212160000e0 3.459115067490000e0
3.546682982330000e0 3.636467689490000e0 3.728525307330000e0 3.822913374860000e0
3.919690887700000e0 4.018918334940000e0 4.120657736970000e0 4.224972684220000e0
4.331928376930000e0 4.441591665900000e0 4.554031094240000e0 4.669316940260000e0
4.787521261370000e0 4.908717939120000e0 5.032982725370000e0 5.160393289660000e0
5.291029267740000e0 5.424972311350000e0 5.562306139250000e0 5.703116589560000e0
5.847491673390000e0 5.995521629870000e0 6.147298982540000e0 6.302918597180000e0
6.462477741120000e0 6.626076144030000e0 6.793816060220000e0 6.965802332600000e0
7.142142458200000e0 7.322946655330000e0 7.508327932510000e0 7.698402159050000e0
7.893288137560000e0 8.093107678090000e0 8.297985674380000e0 8.508050181840000e0
8.723432497619999e0 8.944267242680001e0 9.170692445929999e0 9.402849630490000e0
9.640883902160001e0 9.884944040110000e0 1.013518258990000e1 1.039175595870000e1
1.065482451320000e1 1.092455267990000e1 1.120110904770000e1 1.148466647330000e1
1.177540218920000e1 1.207349791480000e1 1.237913996970000e1 1.269251939000000e1
1.301383204820000e1 1.334327877490000e1 1.368106548530000e1 1.402740330700000e1
1.438250871230000e1 1.474660365380000e1 1.511991570270000e1 1.550267819100000e1
1.589513035780000e1 1.629751749860000e1 1.671009111830000e1 1.713310908900000e1
1.756683581050000e1 1.801154237630000e1 1.846750674240000e1 1.893501390130000e1
1.941435606040000e1 1.990583282400000e1 2.040975138100000e1 2.092642669710000e1
2.145618171110000e1 2.199934753710000e1 2.255626367150000e1 2.312727820490000e1
2.371274804010000e1 2.431303911470000e1 2.492852663020000e1 2.555959528630000e1
2.620663952150000e1 2.687006375960000e1 2.755028266210000e1 2.824772138820000e1
2.896281585970000e1 2.969601303390000e1 3.044777118300000e1 3.121856018020000e1
3.200886179370000e1 3.281916998790000e1 3.364999123160000e1 3.450184481530000e1
3.537526317510000e1 3.627079222600000e1 3.718899170270000e1 3.813043550980000e1
3.909571208040000e1 4.008542474370000e1 4.110019210240000e1 4.214064841900000e1
4.320744401270001e1 4.430124566550000e1 4.542273703890000e1 4.657261910150001e1
4.775161056720000e1 4.896044834400000e1 5.019988799470000e1 5.147070420960000e1
5.277369129020000e1 5.410966364570001e1 5.547945630240001e1 5.688392542540001e1
5.832394885340000e1 5.980042664810000e1 6.131428165610000e1 6.286646008610000e1
6.445793210010000e1 6.608969242000001e1 6.776276094900000e1 6.947818340950001e1
7.123703199640001e1 7.304040604720000e1 7.488943272940000e1 7.678526774490000e1
7.872909605240000e1 8.072213260770001e1 8.276562312370000e1 8.486084484840001e1
8.700910736350000e1 8.921175340310000e1 9.147015969269999e1 9.378573780969999e1
9.615993506590002e1 9.859423541170001e1 1.010901603640000e2
</PP_R>
<PP_RAB>
5.433828225070001e-6 5.571386241499999e-6 5.712426555690000e-6 5.857037322430001e-6
6.005308928160002e-6 6.157334047470000e-6 6.313207700990001e-6 6.473027314830000e-6
6.636892781469999e-6 6.804906522140000e-6 6.977173550900000e-6 7.153801540260001e-6
7.334900888460000e-6 7.520584788489999e-6 7.710969298830000e-6 7.906173415989998e-6
8.106319148900001e-6 8.311531595160002e-6 8.521939019240000e-6 8.737672932610000e-6
8.958868175999999e-6 9.185663003640000e-6 9.418199169670000e-6 9.656622016779998e-6
9.901080566990000e-6 1.015172761490000e-5 1.040871982300000e-5 1.067221781980000e-5
1.094238630020000e-5 1.121939412820000e-5 1.150341444270000e-5 1.179462476580000e-5
1.209320711330000e-5 1.239934810890000e-5 1.271323910070000e-5 1.303507628080000e-5
1.336506080790000e-5 1.370339893300000e-5 1.405030212860000e-5 1.440598722040000e-5
1.477067652320000e-5 1.514459797960000e-5 1.552798530270000e-5 1.592107812220000e-5
1.632412213370000e-5 1.673736925300000e-5 1.716107777290000e-5 1.759551252500000e-5
1.804094504530000e-5 1.849765374350000e-5 1.896592407740000e-5 1.944604873130000e-5
1.993832779870000e-5 2.044306896990000e-5 2.096058772480000e-5 2.149120752930000e-5
2.203526003810000e-5 2.259308530180000e-5 2.316503197920000e-5 2.375145755570000e-5
2.435272856640000e-5 2.496922082510000e-5 2.560131965970000e-5 2.624942015250000e-5
2.691392738740000e-5 2.759525670300000e-5 2.829383395230000e-5 2.901009576890000e-5
2.974448983970000e-5 3.049747518490000e-5 3.126952244490000e-5 3.206111417440000e-5
3.287274514380000e-5 3.370492264909999e-5 3.455816682830000e-5 3.543301098660000e-5
3.633000193030000e-5 3.724970030780000e-5 3.819268096060000e-5 3.915953328230000e-5
4.015086158700000e-5 4.116728548720000e-5 4.220944028100000e-5 4.327797734900000e-5
4.437356456160001e-5 4.549688669660000e-5 4.664864586680000e-5 4.782956195920001e-5
4.904037308489999e-5 5.028183604010001e-5 5.155472677960001e-5 5.285984090159999e-5
5.419799414500001e-5 5.557002289890000e-5 5.697678472620000e-5 5.841915889860001e-5
5.989804694700000e-5 6.141437322470001e-5 6.296908548480000e-5 6.456315547319999e-5
6.619757953540001e-5 6.787337923979999e-5 6.959160201560000e-5 7.135332180810000e-5
7.315963974950000e-5 7.501168484730001e-5 7.691061468999999e-5 7.885761617040000e-5
8.085390622810001e-5 8.290073260910001e-5 8.499937464669999e-5 8.715114406030001e-5
8.935738577610000e-5 9.161947876669998e-5 9.393883691409998e-5 9.631690989250000e-5
9.875518407500003e-5 1.012551834620000e-4 1.038184706350000e-4 1.064466477320000e-4
1.091413574490000e-4 1.119042840670000e-4 1.147371545050000e-4 1.176417394000000e-4
1.206198542120000e-4 1.236733603590000e-4 1.268041663820000e-4 1.300142291370000e-4
1.333055550170000e-4 1.366802012090000e-4 1.401402769760000e-4 1.436879449780000e-4
1.473254226230000e-4 1.510549834530000e-4 1.548789585650000e-4 1.587997380680000e-4
1.628197725760000e-4 1.669415747430000e-4 1.711677208280000e-4 1.755008523110000e-4
1.799436775390000e-4 1.844989734240000e-4 1.891695871720000e-4 1.939584380710000e-4
1.988685193080000e-4 2.039028998430000e-4 2.090647263270000e-4 2.143572250720000e-4
2.197837040600001e-4 2.253475550170001e-4 2.310522555320000e-4 2.369013712290000e-4
2.428985579940000e-4 2.490475642650000e-4 2.553522333700000e-4 2.618165059340000e-4
2.684444223370001e-4 2.752401252430000e-4 2.822078621860000e-4 2.893519882310000e-4
2.966769686870000e-4 3.041873819060000e-4 3.118879221410000e-4 3.197834024800000e-4
3.278787578549999e-4 3.361790481280000e-4 3.446894612490000e-4 3.534153165040000e-4
3.623620678360000e-4 3.715353072570000e-4 3.809407683400000e-4 3.905843298030000e-4
4.004720191870000e-4 4.106100166190000e-4 4.210046586780000e-4 4.316624423540000e-4
4.425900291080000e-4 4.537942490380001e-4 4.652821051460000e-4 4.770607777150000e-4
4.891376288010001e-4 5.015202068270000e-4 5.142162513080000e-4 5.272336976850001e-4
5.405806822870001e-4 5.542655474120001e-4 5.682968465469999e-4 5.826833497110001e-4
5.974340489369999e-4 6.125581638909999e-4 6.280651476380000e-4 6.439646925480000e-4
6.602667363530000e-4 6.769814683620000e-4 6.941193358269999e-4 7.116910504710000e-4
7.297075951900000e-4 7.481802309100000e-4 7.671205036300001e-4 7.865402516360001e-4
8.064516129030000e-4 8.268670326810000e-4 8.477992712710002e-4 8.692614120040000e-4
8.912668694159999e-4 9.138293976349999e-4 9.369630989740001e-4 9.606824327519998e-4
9.850022243230001e-4 1.009937674350000e-3 1.035504368300000e-3 1.061718286180000e-3
1.088595812560000e-3 1.116153746760000e-3 1.144409313380000e-3 1.173380173080000e-3
1.203084433580000e-3 1.233540661020000e-3 1.264767891520000e-3 1.296785643130000e-3
1.329613927980000e-3 1.363273264820000e-3 1.397784691830000e-3 1.433169779770000e-3
1.469450645480000e-3 1.506649965670000e-3 1.544790991140000e-3 1.583897561270000e-3
1.623994118930000e-3 1.665105725780000e-3 1.707258077910000e-3 1.750477521920000e-3
1.794791071360000e-3 1.840226423650000e-3 1.886811977360000e-3 1.934576849970000e-3
1.983550896090000e-3 2.033764726100000e-3 2.085249725250000e-3 2.138038073370000e-3
2.192162764890000e-3 2.247657629490000e-3 2.304557353280000e-3 2.362897500430000e-3
2.422714535440000e-3 2.484045845900000e-3 2.546929765880000e-3 2.611405599870000e-3
2.677513647370000e-3 2.745295228060000e-3 2.814792707630000e-3 2.886049524280000e-3
2.959110215820000e-3 3.034020447580000e-3 3.110827040880000e-3 3.189578002360000e-3
3.270322553909999e-3 3.353111163510000e-3 3.437995576750000e-3 3.525028849140000e-3
3.614265379300000e-3 3.705760942990000e-3 3.799572727900000e-3 3.895759369439999e-3
3.994380987420000e-3 4.095499223530000e-3 4.199177279980000e-3 4.305479958929999e-3
4.414473703010000e-3 4.526226636850001e-3 4.640808609680000e-3 4.758291238970000e-3
4.878747955170000e-3 5.002254047670000e-3 5.128886711780001e-3 5.258725097040000e-3
5.391850356680000e-3 5.528345698310000e-3 5.668296435959999e-3 5.811790043399999e-3
5.958916208820000e-3 6.109766890840000e-3 6.264436376050000e-3 6.423021337930001e-3
6.585620897230000e-3 6.752336683970000e-3 6.923272900950001e-3 7.098536388859999e-3
7.278236693090000e-3 7.462486132180000e-3 7.651399868029999e-3 7.845095977870001e-3
8.043695528079999e-3 8.247322649830000e-3 8.456104616720001e-3 8.670171924260000e-3
8.889658371490000e-3 9.114701144580001e-3 9.345440902600000e-3 9.582021865399998e-3
9.824591903790001e-3 1.007330263190000e-2 1.032830950210000e-2 1.058977190200000e-2
1.085785325400000e-2 1.113272111780000e-2 1.141454729470000e-2 1.170350793520000e-2
1.199978364910000e-2 1.230355961840000e-2 1.261502571310000e-2 1.293437660940000e-2
1.326181191220000e-2 1.359753627910000e-2 1.394175954880000e-2 1.429469687210000e-2
1.465656884630000e-2 1.502760165310000e-2 1.540802720020000e-2 1.579808326580000e-2
1.619801364770000e-2 1.660806831550000e-2 1.702850356660000e-2 1.745958218670000e-2
1.790157361410000e-2 1.835475410770000e-2 1.881940692010000e-2 1.929582247450000e-2
1.978429854610000e-2 2.028514044820000e-2 2.079866122350000e-2 2.132518183920000e-2
2.186503138760000e-2 2.241854729250000e-2 2.298607551920000e-2 2.356797079130000e-2
2.416459681240000e-2 2.477632649310000e-2 2.540354218450000e-2 2.604663591660000e-2
2.670600964410000e-2 2.738207549700000e-2 2.807525603840000e-2 2.878598452880000e-2
2.951470519650000e-2 3.026187351580000e-2 3.102795649120000e-2 3.181343294940000e-2
3.261879383880000e-2 3.344454253620000e-2 3.429119516130000e-2 3.515928089980000e-2
3.604934233329999e-2 3.696193577930000e-2 3.789763163840000e-2 3.885701475090000e-2
3.984068476250000e-2 4.084925649910000e-2 4.188336035070000e-2 4.294364266590000e-2
4.403076615580000e-2 4.514541030780000e-2 4.628827181080000e-2 4.746006499060000e-2
4.866152225590000e-2 4.989339455670000e-2 5.115645185330000e-2 5.245148359760000e-2
5.377929922660000e-2 5.514072866820000e-2 5.653662286020000e-2 5.796785428200000e-2
5.943531749970000e-2 6.093992972560001e-2 6.248263139130001e-2 6.406438673570001e-2
6.568618440720000e-2 6.734903808229999e-2 6.905398709849999e-2 7.080209710460000e-2
7.259446072620000e-2 7.443219824890001e-2 7.631645831849999e-2 7.824841865880000e-2
8.022928680800000e-2 8.226030087310001e-2 8.434273030410001e-2 8.647787668710000e-2
8.866707455820000e-2 9.091169223720000e-2 9.321313268319999e-2 9.557283437160001e-2
9.799227219250000e-2 1.004729583740000e-1 1.030164434240000e-1 1.056243171050000e-1
1.082982094230000e-1 1.110397916470000e-1 1.138507773560000e-1 1.167329235070000e-1
1.196880315340000e-1 1.227179484780000e-1 1.258245681340000e-1 1.290098322410000e-1
1.322757316930000e-1 1.356243077840000e-1 1.390576534810000e-1 1.425779147390000e-1
1.461872918350000e-1 1.498880407470000e-1 1.536824745630000e-1 1.575729649290000e-1
1.615619435280000e-1 1.656519036010000e-1 1.698454015050000e-1 1.741450583150000e-1
1.785535614550000e-1 1.830736663830000e-1 1.877081983130000e-1 1.924600539760000e-1
1.973322034390000e-1 2.023276919520000e-1 2.074496418590000e-1 2.127012545460000e-1
2.180858124400000e-1 2.236066810670000e-1 2.292673111480000e-1 2.350712407620000e-1
2.410220975540000e-1 2.471236010030000e-1 2.533795647470000e-1 2.597938989670000e-1
2.663706128300000e-1 2.731138169980000e-1 2.800277261930000e-1 2.871166618310000e-1
2.943850547300000e-1 3.018374478710000e-1 3.094784992430000e-1 3.173129847510000e-1
3.253458012040000e-1 3.335819693730000e-1 3.420266371330000e-1 3.506850826740000e-1
3.595627178080000e-1 3.686650913460000e-1 3.779978925660000e-1 3.875669547750000e-1
3.973782589460000e-1 4.074379374650000e-1 4.177522779580000e-1 4.283277272239999e-1
4.391708952630000e-1 4.502885594070000e-1 4.616876685590000e-1 4.733753475340000e-1
4.853589015100000e-1 4.976458205989999e-1 5.102437845260001e-1 5.231606674280000e-1
5.364045427780000e-1 5.499836884280001e-1 5.639065917870000e-1 5.781819551230000e-1
5.928187010019999e-1 6.078259778670000e-1 6.232131657540000e-1 6.389898821580000e-1
6.551659880380000e-1 6.717515939889999e-1 6.887570665529999e-1 7.061930347050000e-1
7.240703964920000e-1 7.424003258480000e-1 7.611942795740000e-1 7.804640045040000e-1
8.002215448430000e-1 8.204792496970001e-1 8.412497807910000e-1 8.625461203819999e-1
8.843815793779999e-1 9.067698056490000e-1 9.297247925670000e-1 9.532608877460000e-1
9.773928020100000e-1 1.002135618590000e0 1.027504802560000e0 1.053516210480000e0
1.080186100320000e0 1.107531141640000e0 1.135568425970000e0 1.164315477540000e0
1.193790264180000e0 1.224011208600000e0 1.254997199870000e0 1.286767605240000e0
1.319342282250000e0 1.352741591140000e0 1.386986407560000e0 1.422098135630000e0
1.458098721340000e0 1.495010666200000e0 1.532857041400000e0 1.571661502150000e0
1.611448302500000e0 1.652242310500000e0 1.694069023730000e0 1.736954585240000e0
1.780925799910000e0 1.826010151180000e0 1.872235818230000e0 1.919631693620000e0
1.968227401310000e0 2.018053315190000e0 2.069140578090000e0 2.121521121210000e0
2.175227684090000e0 2.230293835080000e0 2.286753992320000e0 2.344643445240000e0
2.403998376650000e0 2.464855885290000e0 2.527254009100000e0
</PP_RAB>
</PP_MESH>
<PP_LOCAL columns="4">
-9.229300848819999e-1 -9.229300994420001e-1 -9.229301146220001e-1 -9.229301307400000e-1
-9.229301475400000e-1 -9.229301653289999e-1 -9.229301840180000e-1 -9.229302035250001e-1
-9.229302242270000e-1 -9.229302458170000e-1 -9.229302686090000e-1 -9.229302925160001e-1
-9.229303177580000e-1 -9.229303441490000e-1 -9.229303720070000e-1 -9.229304011900000e-1
-9.229304319960001e-1 -9.229304643570000e-1 -9.229304982370000e-1 -9.229305340210001e-1
-9.229305715150000e-1 -9.229306110030000e-1 -9.229306524489999e-1 -9.229306960680001e-1
-9.229307420129999e-1 -9.229307901900000e-1 -9.229308409000000e-1 -9.229308941870000e-1
-9.229309501230000e-1 -9.229310089990001e-1 -9.229310709740000e-1 -9.229311360670000e-1
-9.229312044009999e-1 -9.229312763370000e-1 -9.229313519909999e-1 -9.229314315109999e-1
-9.229315149810001e-1 -9.229316028880000e-1 -9.229316952160001e-1 -9.229317922809999e-1
-9.229318943350000e-1 -9.229320016990000e-1 -9.229321144960000e-1 -9.229322330820001e-1
-9.229323577139999e-1 -9.229324887200001e-1 -9.229326264730000e-1 -9.229327713310001e-1
-9.229329235860000e-1 -9.229330836670000e-1 -9.229332518880000e-1 -9.229334288690000e-1
-9.229336148470001e-1 -9.229338103320000e-1 -9.229340158619999e-1 -9.229342318760001e-1
-9.229344589769999e-1 -9.229346978610000e-1 -9.229349488090000e-1 -9.229352128049999e-1
-9.229354902180001e-1 -9.229357817820000e-1 -9.229360884100000e-1 -9.229364107440000e-1
-9.229367496569999e-1 -9.229371058409999e-1 -9.229374803190000e-1 -9.229378740470001e-1
-9.229382879230000e-1 -9.229387230640000e-1 -9.229391803940000e-1 -9.229396612300000e-1
-9.229401668480000e-1 -9.229406982260000e-1 -9.229412569480001e-1 -9.229418441960000e-1
-9.229424617210000e-1 -9.229431106960000e-1 -9.229437931080000e-1 -9.229445104700000e-1
-9.229452645760000e-1 -9.229460573979999e-1 -9.229468908650000e-1 -9.229477670129999e-1
-9.229486880949999e-1 -9.229496564960000e-1 -9.229506744490001e-1 -9.229517446430000e-1
-9.229528696210000e-1 -9.229540523370000e-1 -9.229552957170000e-1 -9.229566028190000e-1
-9.229579769270000e-1 -9.229594214480001e-1 -9.229609401279999e-1 -9.229625365850001e-1
-9.229642149550001e-1 -9.229659793720000e-1 -9.229678342410001e-1 -9.229697841770001e-1
-9.229718340660000e-1 -9.229739891030000e-1 -9.229762546669999e-1 -9.229786362870001e-1
-9.229811400839999e-1 -9.229837722160001e-1 -9.229865393190000e-1 -9.229894483380001e-1
-9.229925064340000e-1 -9.229957213580001e-1 -9.229991010730000e-1 -9.230026541219999e-1
-9.230063892710000e-1 -9.230103160010000e-1 -9.230144439570001e-1 -9.230187836330000e-1
-9.230233457940001e-1 -9.230281417530000e-1 -9.230331837100000e-1 -9.230384841519999e-1
-9.230440562410001e-1 -9.230499141219999e-1 -9.230560723100000e-1 -9.230625461650000e-1
-9.230693520050000e-1 -9.230765067140000e-1 -9.230840282210000e-1 -9.230919353459999e-1
-9.231002478880001e-1 -9.231089865430000e-1 -9.231181732630001e-1 -9.231278309830000e-1
-9.231379838170000e-1 -9.231486571050000e-1 -9.231598776680000e-1 -9.231716734150000e-1
-9.231840740130000e-1 -9.231971101470000e-1 -9.232108147340000e-1 -9.232252218330000e-1
-9.232403675790000e-1 -9.232562897890000e-1 -9.232730281840000e-1 -9.232906247559999e-1
-9.233091233689999e-1 -9.233285703069999e-1 -9.233490141970000e-1 -9.233705060589999e-1
-9.233930997010001e-1 -9.234168516259999e-1 -9.234418210879999e-1 -9.234680704700001e-1
-9.234956655030000e-1 -9.235246750250001e-1 -9.235551716769999e-1 -9.235872315090001e-1
-9.236209347790000e-1 -9.236563655209999e-1 -9.236936125489999e-1 -9.237327686420000e-1
-9.237739317790000e-1 -9.238172048510000e-1 -9.238626959310000e-1 -9.239105185680000e-1
-9.239607922360001e-1 -9.240136426859999e-1 -9.240692017760001e-1 -9.241276082280001e-1
-9.241890081700001e-1 -9.242535547039999e-1 -9.243214091639999e-1 -9.243927409139999e-1
-9.244677279990000e-1 -9.245465578350000e-1 -9.246294269510001e-1 -9.247165425360000e-1
-9.248081218139999e-1 -9.249043933799999e-1 -9.250055976360001e-1 -9.251119869730001e-1
-9.252238269810000e-1 -9.253413965610001e-1 -9.254649890360000e-1 -9.255949127530000e-1
-9.257314915590001e-1 -9.258750663510000e-1 -9.260259947890001e-1 -9.261846532050001e-1
-9.263514371319999e-1 -9.265267622100000e-1 -9.267110652900000e-1 -9.269048053930000e-1
-9.271084651910000e-1 -9.273225518120000e-1 -9.275475983180000e-1 -9.277841648190000e-1
-9.280328400540000e-1 -9.282942427200000e-1 -9.285690229920000e-1 -9.288578640850000e-1
-9.291614841960000e-1 -9.294806377380000e-1 -9.298161177770000e-1 -9.301687573510000e-1
-9.305394319610000e-1 -9.309290616409999e-1 -9.313386129100000e-1 -9.317691013719999e-1
-9.322215940840000e-1 -9.326972122379999e-1 -9.331971336480001e-1 -9.337225957690000e-1
-9.342748985450001e-1 -9.348554074730000e-1 -9.354655571429999e-1 -9.361068543149999e-1
-9.367808818340000e-1 -9.374893020740000e-1 -9.382338610180000e-1 -9.390163923310000e-1
-9.398388215659999e-1 -9.407031710790001e-1 -9.416115641479999e-1 -9.425662304710000e-1
-9.435695107620001e-1 -9.446238625370000e-1 -9.457318659729999e-1 -9.468962289169999e-1
-9.481197940440001e-1 -9.494055447070000e-1 -9.507566116620000e-1 -9.521762802060000e-1
-9.536679974800000e-1 -9.552353801240001e-1 -9.568822218030000e-1 -9.586125019840001e-1
-9.604303942500000e-1 -9.623402749000000e-1 -9.643467332070001e-1 -9.664545797310000e-1
-9.686688573509999e-1 -9.709948513659999e-1 -9.734380996390000e-1 -9.760044048260001e-1
-9.786998446389999e-1 -9.815307846300000e-1 -9.845038902230000e-1 -9.876261388100001e-1
-9.909048334529999e-1 -9.943476158199999e-1 -9.979624797260001e-1 -1.001757785570000e0
-1.005742274280000e0 -1.009925081920000e0 -1.014315754700000e0 -1.018924263860000e0
-1.023761020700000e0 -1.028836892330000e0 -1.034163216590000e0 -1.039751817490000e0
-1.045615020830000e0 -1.051765668660000e0 -1.058217134580000e0 -1.064983338040000e0
-1.072078757810000e0 -1.079518446020000e0 -1.087318039560000e0 -1.095493772260000e0
-1.104062484500000e0 -1.113041632550000e0 -1.122449294920000e0 -1.132304178090000e0
-1.142625619200000e0 -1.153433586520000e0 -1.164748676920000e0 -1.176592109750000e0
-1.188985717920000e0 -1.201951934210000e0 -1.215513772620000e0 -1.229694805810000e0
-1.244519135750000e0 -1.260011359440000e0 -1.276196526190000e0 -1.293100089730000e0
-1.310747850420000e0 -1.329165890440000e0 -1.348380498990000e0 -1.368418087780000e0
-1.389305097260000e0 -1.411067890730000e0 -1.433732637960000e0 -1.457325188060000e0
-1.481870928950000e0 -1.507394637010000e0 -1.533920313450000e0 -1.561471011610000e0
-1.590068652000000e0 -1.619733829060000e0 -1.650485610580000e0 -1.682341330740000e0
-1.715316379400000e0 -1.749423993290000e0 -1.784675048700000e0 -1.821077863770000e0
-1.858638013710000e0 -1.897358165870000e0 -1.937237940400000e0 -1.978273804890000e0
-2.020459010410000e0 -2.063783578270000e0 -2.108234343520000e0 -2.153795066990000e0