
BEGIN_INFO
  Fermi Energy:    17.081187217
  Shift Range: -1.000000000eV to 1.000000000eV
END_INFO

BEGIN_BLOCK_BANDGRID_3D
band_energies
BANDGRID_3D_BANDS
           2
          25          25          25
    0.000000  0.000000  0.000000
    1.158511  0.000000  1.158511
   -1.158511  1.158511  0.000000
    0.000000 -1.158511  1.158511
  BAND:     1
       -0.000112535   -0.297907307   -8.326669105   -6.568180306   -4.508965425   -3.394759293  -18.243809206  -10.244420140   -1.081962896   42.625027366    2.367555269  -15.766742869   14.910939088  -15.766622809    2.367556552   42.625127204   -1.081965141  -10.244428630  -18.243822474   -3.394759112   -4.508960051   -6.568166785   -8.326655793   -0.297908438   -0.000112535
        0.549179172   -0.299874227   -5.870315957   -5.353987552   -3.581105796   -2.806080221   -5.923104418    5.761920313   -2.952613015   -2.249239085   -5.740449616   -6.145730335    3.250547737    3.039358096    7.877819826    7.189155950    3.225151454   -2.277428636    1.862444381   -4.537925302   -2.524196063   -3.361992956   -3.901268496   -1.431533095    0.549179172
        2.144407818   -1.407037224   -8.216084436   -5.413097059   -2.552141373   -1.593267786    0.076088903    1.173097354   -1.360237326   -1.473705904   -1.754691437   -3.562919999   -4.584373914    1.375035389    3.511408817    4.403758179    1.103975931    1.185274024   -0.751231470   -5.383177922    1.531992624   -1.454801051   -1.242593325   -0.119968948    2.144407818
        2.290778115   -0.084789094   -3.877606113   -6.623970628   -3.651640828   -1.574100251    3.689550616   32.961146007   -1.170448590   -2.876632507   -1.946914882   17.968473773   -1.327405371   -0.314009652    0.761581070    0.853505449   11.911501066    1.624687283    2.680190432    2.218178193    2.274948595   10.170691068   -0.245872568    1.075035016    2.290778115
        3.192821564    1.018643956   -1.239101298   -3.259841476   -4.502571042   -2.678962289    0.064635345   34.981922485   -1.469019411   -4.382159295   -8.963702859  -13.538720366   -1.121363894   -0.334666177    0.110530990    0.549715364   -0.012590941   -1.194917074    2.243267402    2.000851608    5.508280067   18.141564233    1.585520463    2.208077863    3.192821564
        5.296529500    2.207979379   -0.228665087   -1.427943849   -2.407372537   -3.261604137   -5.693730470    1.288756568   -0.946230683   -4.388002108   -1.442283236    0.006953754  -13.094675218   -6.413689885    1.913300620    1.817449374  -13.692840425   -3.857569905    0.158731222    0.128894953   -0.372575805    0.380107072   -3.801050045   18.604672477    5.296529500
       23.143281099   19.210162136    1.417731239   10.067286750    1.490250474   -3.071778239  -18.373627768    5.707343315   -1.348548701   -2.859459149   -8.734978275    0.085018088   -1.315362741   -1.629822067   -2.261818438   -2.664534638   -2.553130292   -1.947385202   -1.592775807   -0.775963767   -1.158838801   -1.382993001    0.069565774   -0.022796877   23.143281099
        9.242085074    0.629105331   -7.246930279   17.426592860    2.419468097   -5.385464890    2.421174778   -9.886362636   -2.979595082   -1.452803828   -1.914485144  -11.490894338  -13.401337850   -1.581774475   -0.341231066   -0.215574374   -0.248555695   -0.508508062   -1.317010048    0.543778146    4.397598163   -1.412253052   -4.350559360    0.499600214    9.242085074
       -0.393103937   -0.355475359    0.201317172    0.310356180    5.239335604    2.165135153   -0.744399088   -1.719601473   -0.694348001   -1.554284419   -1.685389535    9.172319700   -1.097854807   -8.877669281   -2.256768490   -0.214741714   -0.074121680   -0.199609738   -1.218380824    3.027275414    0.162397306   -0.855765693   -4.343558178   -9.802481743   -0.393103937
      -42.893542478   -8.735394346   -4.326591781   -1.245189272   -0.360048574    1.674380429    2.551862373    1.031348287    3.330366595   14.083381433   -6.265393664   -3.227803415   -1.236162456   -0.338705143    1.892396639   -2.640062935   -0.251313534   -0.198790316   -1.658848523    1.187721028    0.599744426    0.029841342    5.085465712   32.912531133  -42.893542478
       37.826897190   26.369612334   -4.268342363   -1.523319110   -1.100846496   -0.091492994    2.242298529    1.682666597    1.191775276    6.387388346    1.985700841   -6.467392850   -4.586759852   -0.394403456    0.108844515    2.276579450   -2.556476812   -0.473022035   -1.243696103    1.379890832    0.841970587    2.698822821   16.650232759   39.692454151   37.826897190
        2.469338275   44.583233758    4.846384243   25.447588587    4.431778964   -0.787356272    0.115874088   -0.446979627   11.987991501    4.590615539    7.819330198    7.179312697    3.053808942    1.238371422    0.768592923    0.532559212  -14.073339419   -2.188974571   -1.331441974    1.877456919    0.617396106    2.430648294   31.951318495   11.627030626    2.469338275
      -18.719452388    6.937845829   16.719663500    0.028753977    0.203798405    1.754143803   -1.590178852   -5.505532317   -0.034782064    0.824720673    3.482766079    3.591415721   14.369179389    3.591415830    3.482765128    0.824724443   -0.034782238   -5.505548453   -1.590180968    1.754166224    0.203804299    0.028757263   16.719670202    6.937823877  -18.719452388
        2.469339985   11.627029489   31.951341599    2.430648613    0.617394301    1.877448349   -1.331440214   -2.188974322  -14.073293003    0.532559665    0.768590223    1.238365224    3.053808092    7.179394658    7.819318332    4.590620309   11.988107552   -0.446987222    0.115874300   -0.787354302    4.431797242   25.447629809    4.846387786   44.583229964    2.469339985
       37.826916410   39.692482742   16.650243530    2.698826298    0.841971584    1.379893645   -1.243694750   -0.473022614   -2.556475145    2.276583854    0.108844418   -0.394404731   -4.586768714   -6.467391378    1.985696861    6.387389694    1.191775332    1.682670675    2.242309815   -0.091491991   -1.100843377   -1.523313212   -4.268342509   26.369615198   37.826916410
      -42.893439064   32.912543408    5.085461792    0.029839292    0.599745474    1.187720472   -1.658846871   -0.198790322   -0.251314405   -2.640065027    1.892395382   -0.338705465   -1.236167521   -3.227807513   -6.265375122   14.083362133    3.330361936    1.031352454    2.551878911    1.674375402   -0.360051755   -1.245184209   -4.326587959   -8.735401616  -42.893439064
       -0.393103575   -9.802477890   -4.343551735   -0.855703361    0.162399856    3.027277667   -1.218376298   -0.199609268   -0.074123241   -0.214742278   -2.256763872   -8.877655558   -1.097860272    9.172352959   -1.685385085   -1.554281759   -0.694345890   -1.719594376   -0.744390755    2.165139308    5.239334745    0.310359085    0.201317082   -0.355470865   -0.393103575
        9.242094278    0.499601335   -4.350553465   -1.412242730    4.397595027    0.543769890   -1.317010939   -0.508507853   -0.248556349   -0.215575187   -0.341230305   -1.581772552  -13.401343461  -11.490876685   -1.914482881   -1.452804740   -2.979597947   -9.886373428    2.421167130   -5.385474023    2.419492990   17.426606042   -7.246955278    0.629083351    9.242094278
       23.143295027   -0.022749259    0.069562961   -1.382993924   -1.158836939   -0.775964972   -1.592782673   -1.947386940   -2.553127667   -2.664535625   -2.261816269   -1.629816942   -1.315361476    0.085020298   -8.734973605   -2.859457056   -1.348553190    5.707320713  -18.373626031   -3.071774639    1.490247069   10.067294492    1.417714836   19.210160698   23.143295027
        5.296524661   18.604684121   -3.801060502    0.380095171   -0.372577798    0.128897197    0.158731855   -3.857574638  -13.692822894    1.817445868    1.913300365   -6.413723579  -13.094653467    0.006954992   -1.442283951   -4.387998240   -0.946238944    1.288749669   -5.693727690   -3.261595240   -2.407373591   -1.427948546   -0.228668450    2.207976207    5.296524661
        3.192819580    2.208078992    1.585524668   18.141553752    5.508269704    2.000856797    2.243284922   -1.194888729   -0.012588210    0.549717817    0.110532731   -0.334667681   -1.121367839  -13.538692488   -8.963695998   -4.382156988   -1.469030608   34.981951845    0.064634587   -2.678956654   -4.502568363   -3.259848891   -1.239100751    1.018647572    3.192819580
        2.290780380    1.075037779   -0.245868620   10.170686632    2.274950944    2.218179058    2.680199564    1.624699284   11.911068260    0.853516605    0.761583267   -0.314008548   -1.327409388   17.968450309   -1.946911789   -2.876624464   -1.170439023   32.961170642    3.689544201   -1.574098877   -3.651628953   -6.623962358   -3.877608465   -0.084781978    2.290780380
        2.144407280   -0.119975618   -1.242589679   -1.454796787    1.531992667   -5.383161011   -0.751234588    1.185275861    1.103979373    4.403765453    3.511408713    1.375027271   -4.584366920   -3.562925665   -1.754695755   -1.473706015   -1.360231374    1.173108690    0.076083234   -1.593267210   -2.552129878   -5.413077126   -8.216087174   -1.407025474    2.144407280
        0.549178434   -1.431555932   -3.901274527   -3.361994217   -2.524197601   -4.537908352    1.862442725   -2.277431536    3.225148903    7.189161816    7.877819236    3.039366132    3.250541090   -6.145736066   -5.740453397   -2.249242013   -2.952610558    5.761916711   -5.923107686   -2.806080452   -3.581097198   -5.353971388   -5.870326977   -0.299874847    0.549178434
       -0.000112535   -0.297907307   -8.326669105   -6.568180306   -4.508965425   -3.394759293  -18.243809206  -10.244420140   -1.081962896   42.625027366    2.367555269  -15.766742869   14.910939088  -15.766622809    2.367556552   42.625127204   -1.081965141  -10.244428630  -18.243822474   -3.394759112   -4.508960051   -6.568166785   -8.326655793   -0.297908438   -0.000112535
       -0.297909678   -5.850300911   -5.377954464   -3.641264079   -2.780383964   -6.862088501    7.761086569   -2.836136756   -2.435925408   -7.233647564   -5.931481732    2.314529785    3.306678746    7.593819114    6.399815244    3.283858823   -1.667935640    1.494608561   -3.758513701   -2.379807394   -3.249602401   -3.870084910   -1.457999456    0.552320720   -0.297909678
       -0.299877555    0.115558859   -0.352626501   -0.541293237   -0.686134888   -1.094884564    6.830989697   -1.942841917   -1.293396539   -3.238316737   -2.121762609   -2.570113752    8.559891112   17.989335841    3.070894738    0.381789240    5.238490243   -2.096249451   -0.664746169   -0.570681366   -0.877214963   -0.684834624   -0.218250407    0.681884533   -0.299877555
       -1.407034100   -6.072643859   -0.351598823   -0.024820142   -0.119842733   -0.318901802   -1.471372142   -6.772347918   -0.724024868   -0.809865585   -0.972679806    0.134399630    0.545476507    2.128640333    6.114573297    1.977051624    2.655428253    2.129510708    1.772522723   -1.518736291   -0.398572271   -0.259682093    0.017504262    0.372270540   -1.407034100
       -0.084779408  -57.126118274   -5.533894664   -0.525545794   -0.129258696   -0.163586442    0.150755014    0.393118107   -0.576840540   -1.370350055   -0.920473294  -11.146965775    0.053274739    0.563686006    1.424770199  -11.223172952    1.458968128    1.346315341    0.362943447   -1.580132643   -0.837966149   -0.236209834    0.091074942    0.420548386   -0.084779408
        1.018656855   -9.803595847  -31.608029646   -3.517385426   -0.684192634   -0.316944887    0.203600548   14.749190023   -0.293388980   -1.633632826   -2.563713257   -1.756565347   -0.551359610    0.021703567    0.360595990    0.472634487    0.620941251    1.329690154    0.614512661    0.777983097    6.079265312   -1.115605123   -0.004970483    0.625925726    1.018656855
        2.207982634    0.992740324  -13.732244947  -13.006202851   -2.770906615   -1.073214695   -1.330605218    0.532812375   -0.247201164   -1.048433442   -1.186781244   -1.339430816   -8.704325879   -5.034617547   -2.552044329   -3.579841235   -3.500191119    0.167172655  -15.033184717   -0.209591012    3.698231437    3.215756606   -0.773838261    0.770944290    2.207982634
       19.210164748    1.270411597   -3.859246166  -12.131062689  -10.164403383   -5.992382839    4.676433389   -7.029889644   -0.571701247   -1.882859801   -1.259075309    1.731827555   -2.660031324  -11.193326262   -5.522509651   -4.891641918  -10.278370499   -7.157284759   -1.302648187  -12.235065722   -1.196663835   -0.147233677   -1.693032701    1.604735929   19.210164748
        0.629089909   70.062580827   44.218782860    5.861674202    2.193196370   24.840175978    6.580953225   -1.521253374   -0.881353413   -1.387085989   -2.533723262   -1.288510978   -2.455807029    0.176310870   -0.136901332   -0.165107977   -0.437684323   -3.260961549   -8.946867981   -2.206590473   -1.136734294   -2.250980925   -3.911119912   -1.982038119    0.629089909
       -0.355474663    9.246043042    2.179377343   -3.817424552    0.476281255  -15.953059354   -9.020536297   -2.927317217   -1.066202126   -0.781527787   -0.868947266   -1.707720474   -9.553652190  -10.894198673   -0.161658620   -0.000146011   -0.028300419   -0.381057432   -6.314454770    0.899733056    0.335947025   -1.851088385   -5.644207911  -10.826938752   -0.355474663
       -8.735384493    5.586459184    3.708268604   -0.396443345   -0.887968669   -1.457624173  -16.741119102   -3.732531263   -1.639045901   -2.777396466   -0.905040329   -5.203628770   -0.543889939   -5.398304987   -5.925330535   -0.180246646   -0.030025945   -0.178932488   -2.786607065   -0.101343322    0.055708752   -3.480427262   -0.599173581   -0.854763657   -8.735384493
       26.369632945    1.440082352   -4.124804359   -0.281395556   -0.585022970   -0.362688982    0.037903995    2.054308842    0.051856186   -6.353512526   -1.780180324    0.569290175    0.004775466   -0.015039170   -2.544092063   -5.093657369   -0.444137618   -0.401316185   -2.698695506   -0.527966439    0.308479079    1.024539372    3.343713556    9.102342266   26.369632945
       44.583217018   35.741902318    1.614223512   11.772760772  -20.261776748   -5.621486700  -13.047497576   21.207677738    1.676051974  -53.847230181   -6.482530103   -2.534641094    0.415789692    0.487568359    0.344225565   -3.589572070  -10.437732421   -3.428820727   -6.888456604   -0.126446988    0.289909883    1.091025473    7.230712704   34.904825204   44.583217018
        6.937820730   16.878251652    9.006193989    1.217149269    9.732029670    0.125858140    0.209015657   -2.406540185   -0.056910149    1.069527930   -2.138295921    3.053431156    8.027388883    2.366498125    1.392928699    0.485844602   -3.484913137   -7.212419095   -9.148506784    0.984936525    0.045287425    1.085793680    8.009913563  128.395943951    6.937820730
       11.627013983    2.381718193   22.400875235    1.404432392   -0.017476498    1.273607375    0.252331729   -0.634089250    1.509929766    0.052150791   -3.395472216    6.489024194    3.345190573   15.794141793    6.579615046   -8.910848627    0.685943329    0.044809292   -1.282602181   -1.965373159    0.426021536   -6.980023535    3.695947682   34.904804171   11.627013983
       39.692425556   12.220169409   25.336429361    1.707273613    0.855684712   -0.854568256    0.078407168   -0.238761966   -9.503440740   -0.002224818   -1.377050664  -22.493028809   -1.926536969    7.848645554    2.999952723    2.044475790    1.368711519    1.408035674   -5.410227448   -4.944020729   -1.285639518   -1.929242773   -0.736282054    9.102326354   39.692425556
       32.912531015  -10.812776474    9.047442379    1.430780728    0.843254484    1.079492369   -0.357978505   -0.137489978   -0.705675371  -25.821219489   -0.466284551   -1.828772564   -9.251629500  -55.027466834    6.405222667    0.392497868    2.471407611    1.365299195    0.741400599   -0.193920694   -1.063405699   -2.312298012   -5.306274206   -0.854769623   32.912531015
       -9.802474830    0.123507757    1.590059173    1.293525022   -0.066095768   -0.473561247   -0.325815562   -0.118398919   -0.145407484   -0.708714731  -12.493632404    0.968750518   -2.032584709   -1.394566840    0.099200768    3.237920591    4.914494982    2.144661695    0.487751656    0.993218334    3.532855593   -0.135401890   -3.917984854  -10.826944301   -9.802474830
        0.499610180    6.542373616   -2.907125898   23.302403239    8.363934191    1.155290029    0.075652347   -0.149351656   -0.150179704   -0.195075471   -0.447348393   -1.726212401  -14.313716939   -0.069180045    1.906364850   -3.605828121   -1.680493227   -1.720241486    1.790419794   -1.380363849    4.962796484   -0.045940377   -2.208913809   -1.982038626    0.499610180
       -0.022734152    7.930360033    2.513744064   -0.224426803  -12.305421604    0.070706457    0.257942490   -0.188691160   -0.711473251   -0.778878266   -0.472551392   -0.307847478   -0.413732886    0.607295135   -2.764137281  -22.858907268   -8.533852396    1.530664680   -1.371197201   -1.512010541   -0.828205577   -1.091072348   -0.791667182    1.604739660   -0.022734152
       18.604718300   72.108218165    2.858896250   -0.368460314   -0.566742982   -3.001785292    0.238070088   -0.430341816  -10.658150627   -0.283046407  -14.727720918   -1.676405330   -0.401266980    0.131624641   -0.845037016   -1.231536170  -13.353819399   25.247372776   -4.153608739   -0.617045427   -0.402587291   -0.246700388   -0.015497470    0.770945006   18.604718300
        2.208075295   -0.285731063   44.048755858   -3.371639550   -0.900982934   -0.358174019  -11.753280711   -1.947466092    1.530341484    0.041485550   -0.470604792    1.044390366  -11.795007164    1.935353319   -0.840548614   -1.537438863  -11.268841945   15.733864615   -9.648348646   -2.369599235   -0.878326000   -0.277172475    0.080256894    0.625924996    2.208075295
        1.075033246    1.374072659   -4.091995514    2.133022678   -0.198103476   -1.458798606    0.062130830   21.078448693   -0.196031053    0.112977520   -1.399543621   -1.811119759   -2.207067919    0.197318831   -2.747575546   -1.416663328  -11.485641615   32.152000537  -18.266026339  -12.966427965   -3.348233814   -0.705604431    0.005393068    0.420547183    1.075033246
       -0.119968825   -9.944967807  -13.395623535  -12.469459270    4.228588842  -16.242616003  -17.054674142    1.667256363    1.472728524    1.133296167   -3.854377511  -20.677270921   -9.177128476   -1.493709134    1.787299888  -24.054937960  -14.460419224   17.699897231  -18.354546796  -26.891600254  -32.164296254   -3.988798262   -0.214910439    0.372270116   -0.119968825
       -1.431540620  -60.006743895  -32.249267498  -12.944088298  -10.213721940   21.559755828   -9.075384731   -4.229110601   -0.318437159 -151.547802666   18.899680606    5.068311587  -11.782398340  -54.910931651    0.028941748   -3.945690964   -8.708612425   25.153240823   -9.979405791  -13.482553864  -32.575227121  -61.293947010   -1.546732741    0.681885746   -1.431540620
       -0.297909678   -5.850300911   -5.377954464   -3.641264079   -2.780383964   -6.862088501    7.761086569   -2.836136756   -2.435925408   -7.233647564   -5.931481732    2.314529785    3.306678746    7.593819114    6.399815244    3.283858823   -1.667935640    1.494608561   -3.758513701   -2.379807394   -3.249602401   -3.870084910   -1.457999456    0.552320720   -0.297909678
       -8.326679235   -5.377961822   -2.481269887   -1.628381235    0.022982861    5.719281594   -1.499707762   -1.291249976   -1.901638831   -3.641217481   -4.083262988    0.852823030    3.514826048    4.602683171    1.159544772    1.117373886   -0.764542876   -5.026698352    1.523580974   -1.399067648   -1.245811003   -0.108970029    2.157627503   -1.458012105   -8.326679235
       -5.870357006   -0.352630154   -0.010754276   -0.122624796   -0.320065541   -1.371955654   -6.457455838   -0.702152719   -0.829752661   -0.962551944    0.516706217    0.184670463    2.382733488    6.437222702    1.833852758    2.478991354    2.214730405    1.775019283   -1.616679843   -0.406936554   -0.275423252    0.022183877    0.377320253   -1.546745755   -5.870357006
       -8.216093819   -0.351602692    0.306896053    0.171829630   -0.035090944   -0.236049183   -1.056005567    1.678091649    0.141521012   -0.623014842   -0.269942388    0.272805872    1.999242780    3.307660157    8.388911697    2.712608817    3.508760738    3.008968419   -3.328495221   -0.326266086   -0.114720053    0.030262176    0.168202793   -0.214909717   -8.216093819
       -3.877591650   -5.533892387   -0.034602788    0.169493890    0.026435437   -0.085973736   -0.348354056    4.900602299   -2.723461976   -3.760862595   -1.198813412   -0.217501906    0.459424881    1.315648179    3.040264617    3.542144328    0.695489456   -0.536816294    3.968387685   -0.800316240   -0.138243763   -0.023355344    0.097881421    0.005393413   -3.877591650
       -1.239094190  -31.608023594   -2.526924516   -0.107000788   -0.037914859   -0.088700673    0.052775297    0.244381840   -1.794878032   -3.682555744   12.031442368   -3.101514556   -0.769309446    0.204115461    0.751415896    1.285937519   52.006891965   -0.875142263   -1.791477302   -1.686435814   -0.546943109   -0.180382479    0.002016428    0.080256635   -1.239094190
       -0.228663776  -13.732245050  -26.282209633   -1.555109275   -0.326930451   -0.246160588   -0.334540781    0.274209453   -0.562325409   -0.351878467    0.778141757   -0.683763361   -7.946048392   -8.895691283   -1.373510752    1.446223240   -0.805450349    2.384476653   -0.506371606    0.697246650    2.296549618   -0.774241720   -0.265576016   -0.015497519   -0.228663776
        1.417725506   -3.859254125 -134.619831682  -18.710251992   -0.143445242   -1.539456489   -1.009615308    5.500168337   -1.635575527   -0.389375606    0.917695920    0.604158189    0.357613851  -14.819640156   -9.684351856    7.133272048    0.059391587   -0.346025922    0.325161993   -0.944930381    2.766614985   25.961616223   -1.188972120   -0.791670136    1.417725506
       -7.246961242   44.218791212   27.254442415  -72.426205662   13.173046226    1.979616314   -6.487779831    1.756296960   -2.807709992   -3.660106231    0.860725680    0.661677805    8.392316323    2.360527435    0.308194448    0.354645711   -0.497102142   -3.902200176   -1.758645640   -0.337253885   -1.374938744   -1.213671411   -3.431959314   -2.208919071   -7.246961242
        0.201313974    2.179364361    5.466795849  -17.953056030   -8.381049818  -14.361320384   -1.438662814   -0.824190727   -0.280972731   -3.649609974   14.349484972   -0.869070478    0.349027730    2.415072532    0.261675905    0.137212931    0.040614488   -1.909315871   -4.007772277   -1.028272362   71.876088011   -1.480338177   -4.067485085   -3.917981923    0.201313974
       -4.326584728    3.708270195    3.035819793   -3.287562841   -8.078989717   -9.172925715  -24.239561410   -1.397187061   -0.829919530   -0.635656685   -1.173942438   -3.062971436   -8.148757745  -14.754234259    0.303067343    0.140930934    0.052598448   -0.210340312   -4.027902365   -0.332502104    0.147061759   -0.651394664   -2.119240780   -5.306276773   -4.326584728
       -4.268335636   -4.124805672    3.428794793    0.217098661   -1.675206460   -2.213856685   -5.222475348    2.108696949   -1.754228071   -0.907612652   -0.243814233   -0.208001468   -0.733945573   -9.683703010   -9.759689872    0.373833297    0.047145113   -0.200466668   -5.646484663   -0.846316485   -0.125512015    0.058797363   -0.089151273   -0.736283182   -4.268335636
        4.846382197    1.614217763  -27.247464705    7.451671999   16.192719713   10.652082958    2.312566309   28.495818547   -1.425067751   -3.297117708    0.493963160    0.398153923    0.436516936    0.192064357   -1.557105868    7.194700821   -0.262649359   -1.908937384   -3.990359376   -0.899740818   -0.078565583    0.272545452    0.898664965    3.695949083    4.846382197
       16.719651197    9.006182008    0.683755563   15.055327386    0.537017609    0.328490496    0.340301391   -3.957638248   -0.924916335   -9.148447297   -4.432727245    0.420278772    1.846437897    1.250798008    0.734981696    1.282400193    0.213974420   -3.741999374   -4.023239345   -0.322506922   -0.125248038    0.289793753    1.025766984    8.009908665   16.719651197
       31.951292545   22.400854851    1.976955378    1.322016619    1.653003774    0.447579448    0.326953615    0.075260545   -1.462411167   -5.001784599  -22.652512976    1.177072185    2.287500764    3.552934513    3.027403403    1.265262376   -0.499675107   -0.329736266   -1.734887884   -0.860760188    0.139147302    0.059637378    0.898663677    7.230703759   31.951292545
       16.650220776   25.336410939    0.053178339    1.389613573   -1.536548996    0.589230924    0.275602382    0.037073679    3.270018128   -1.125714955  -10.789588927   -3.291198927    3.445919636    6.343996059    8.578551743    3.518902132   51.423273778    2.824447003    0.336786258   -0.089228226   74.899665298   -0.681773922   -0.089150986    3.343709029   16.650220776
        5.085461215    9.047429169    1.949026412    1.336954267    0.841966976   -0.000507417    0.098221218   -0.036527832   -1.116930661   -0.262487032   -1.452599183   -4.956575775    1.088686105    4.485083565    1.987280781    2.652298489    0.516941650   -0.772964850   -0.498221763   -0.960723025   -1.313381774   -1.520518752   -2.119237329   -0.599170971    5.085461215
       -4.343554069    1.590060571    0.738480110    1.372971109   -1.772231106    0.036012876   -0.024537175   -0.056692523   -0.203115738   -1.307179007   16.158115123   -2.140471493   -0.954382849    1.534562127    1.159666430    2.521261907    3.183646379   -0.721577825   -1.751908827    0.709054783    2.894483806   -1.262711101   -4.067490129   -5.644208213   -4.343554069
       -4.350559018   -2.907115650  -26.443642552   12.405823566    1.645279049    0.547122195    0.093898901   -0.060707015   -0.105977392   -0.179295932   -0.393139110   -1.031794295  -10.426591071   28.095011750    1.838466329    1.150199453    2.013924439    2.968965557    3.359357361   -1.593501834    2.094759368   25.371365522   -3.431965111   -3.911125359   -4.350559018
        0.069564970    2.513756274    3.381732054    9.023868928    0.532139118    0.449022286    0.273566359   -0.031918619   -0.210670243   -0.187155816   -0.097858950   -0.062892072   -0.084241340   -1.493153429   -5.155167902  -17.038436282   -0.833343565    1.273802299   -3.309476735   -0.808745068   -0.574933256   -0.759554738   -1.188970714   -1.693035236    0.069564970
       -3.801061209    2.858907975    3.097905025    0.310685726   15.029169182    0.319048759    0.323470798    0.051784876   -1.126230662   -1.460778864   -0.384786436   -0.059775753   -0.015391826   -6.101392156   -2.285560576   -8.946929227  -16.016674088   -4.593975718   -1.624976523   -0.324680168   -0.143787462   -0.171888774   -0.265574816   -0.773836038   -3.801061209
        1.585520773   44.048763451    5.969567363   -3.197242257   -1.685325072    8.406694344    0.335129601    0.079322328    3.729154379   -0.341907380   16.326297173   -0.986689446   -0.080148816   -5.447521826   -2.332585257   -8.338149311   -8.206246909    1.403590583    1.470118633   -0.403864691   -0.120937662   -0.025649830    0.002016904   -0.004970842    1.585520773
       -0.245874841   -4.092001392   27.679474704  -18.532904465   -7.987864231   -2.161479989    2.293656097   -3.150090509   -1.570125526   -1.095069166   -1.447567052   -2.063025883  -10.124116873   -1.053904722   -2.241368187   -8.369968190  -28.768604765  -73.032764603  -11.884036132   -1.432295955   -0.283572172    0.008733939    0.097881161    0.091073958   -0.245874841
       -1.242590958  -13.395624150 -137.600185470  -71.939066993   -7.612624910   -9.187299787   -5.166932518   30.443041734   -0.991676366   -5.033903906  -10.832848923   -4.996897803   -0.892797092   31.072470412   -5.505968743   -9.305760932   -8.126235473  -74.184529863 -130.638221494  -13.096363381   -1.239021435    0.007064297    0.168202254    0.017503605   -1.242590958
       -3.901272759  -32.249303221  -26.543532624  -18.556312888   17.316913523  -14.182605282  -22.910713546    1.494993616   -1.542409067   -9.720727678  -21.982793967   -3.035814096    0.971349262    1.379018244    1.765924074  -17.890169039  -16.304511005    6.901730863  -11.827636345  -13.298023043   -9.999694865   -0.178668744    0.377324868   -0.218252250   -3.901272759
       -8.326679235   -5.377961822   -2.481269887   -1.628381235    0.022982861    5.719281594   -1.499707762   -1.291249976   -1.901638831   -3.641217481   -4.083262988    0.852823030    3.514826048    4.602683171    1.159544772    1.117373886   -0.764542876   -5.026698352    1.523580974   -1.399067648   -1.245811003   -0.108970029    2.157627503   -1.458012105   -8.326679235
       -6.568178914   -3.641265219   -1.628381242    3.690614719   35.156826770   -1.232333823   -2.733670423   -1.978894288   10.050438248   -1.343467868   -0.287826415    0.796895474    0.665197486   67.124468496    1.546421874    2.512084307    2.405269928    1.979355661    9.970467310   -0.200118749    1.051610344    2.262786267   -0.108977369   -3.870089806   -6.568178914
       -5.353980810   -0.541293482   -0.122624885   -0.151897949    0.154478726   -0.246974318   -0.588360741   -1.377957403   -0.865273411   -6.445936352    0.065655830    0.523742666    1.459973308  -22.408502699    1.215548745    1.373649806    0.503239291   -1.104935852   -0.871919279   -0.252689936    0.086803146    0.447270455   -0.178678266  -61.293985595   -5.353980810
       -5.413096039   -0.024821088    0.171829647    0.030339744   -0.083107503   -0.321134915    5.420947555   -2.731010914   -3.580243441   -1.126898047   -0.205227321    0.425973905    1.296809931    3.204891406    3.581636517    0.484036607   -0.647604040    3.190039129   -0.782642126   -0.138083591   -0.016366148    0.119810896    0.007064905   -3.988792301   -5.413096039