
BEGIN_INFO
  Fermi Energy:    17.419931289
  Shift Range: -1.000000000eV to 1.000000000eV
END_INFO

BEGIN_BLOCK_BANDGRID_3D
band_energies
BANDGRID_3D_BANDS
           2
          25          25          25
    0.000000  0.000000  0.000000
   -0.846790 -0.846790  0.846790
    0.846790  0.846790  0.846790
   -0.846790  0.846790 -0.846790
  BAND:     1
        0.000000000    0.000000000    0.000000000    0.000000000    0.000000000    0.007742163    5.710590896    9.546637095   -0.835172564    0.351414070    3.175557952   28.995947862    0.078373160   28.995950440    3.175557774    0.351412708   -0.835172020    9.546637091    5.710591944    0.007742163    0.000000000    0.000000000    0.000000000    0.000000000    0.000000000
        0.000000000    0.000000000    0.000000000    0.000000000    0.000000001    0.015837353    1.967481120   -0.104553246   -9.685118707   -2.118953907    2.909260155   10.171864377   21.473814310    5.518170347   -4.182366110   -2.346601644   -1.855103919    2.955008427    6.616545799    2.311881898    0.004114752    0.000000000    0.000000000    0.000000000    0.000000000
        0.000000000    0.000000000    0.000000000    0.000000000    0.000001089    0.010436778   -0.594735396   -6.233478141  -16.754628932   -6.234746174    1.420926320   18.913715471   19.445178581    9.621289332    1.801778097   -1.268589853   -1.233197176   -0.304115820    1.421733794    2.840737753    1.627632290    0.011480063    0.000000000    0.000000000    0.000000000
        0.000000000    0.000000000   -0.000000000   -0.000000016   -0.000613765   -0.238896148   -2.716640602   -8.475821341  -19.546093511   -6.314144546    5.694233925   18.291664126    9.878009145    4.723455416    1.752990722    0.393089089   -0.020235356   -0.297523667    0.235209202    0.973130621    1.825299616    1.435505751    0.011489043    0.000000000    0.000000000
        0.000000000    0.000000001    0.000001085   -0.000613248   -0.057485062   -1.175273524   -4.361760903   -9.373278433  -20.190010541   -4.961389447   10.811120028   13.978732712    5.855222615    2.772559638    1.438862624    0.748174511    0.413009612   -0.035198114   -0.006947379    0.340462258    0.829390903    1.809175029    1.624232820    0.004102630    0.000000000
        0.007709672    0.015756723    0.010344683   -0.238805912   -1.177764689   -3.430527136   -6.214798869  -10.367330057  -19.916251695   -4.461553857   12.636612020   11.084800492    4.102843712    1.817309019    1.122438546    0.908608081    0.671740842    0.046977880   -0.010437796    0.098325046    0.329259369    0.941869763    2.817837706    2.302753437    0.007709672
        5.673394343    1.943159997   -0.605873600   -2.725432389   -4.377638718   -6.229394034   -8.885765640  -12.661859474  -19.797301502   -5.553342700   11.761424966    9.345608641    3.113797482    1.150100032    0.710723671    0.766834990    1.010976509    0.140186473   -0.000168594   -0.001358809    0.031856042    0.233658057    1.417915277    6.633666518    5.673394343
        9.378395836   -0.152389099   -6.240772566   -8.463780085   -9.370380042  -10.391126532  -12.686203513  -17.164770313  -20.500796714   -9.443644624    8.173645676    8.247911705    2.300450096    0.412588006    0.009911730    0.096281932    0.833193946    0.831013177    0.139812257    0.047759628   -0.012069895   -0.294266220   -0.300427108    2.935049339    9.378395836
       -0.958195321   -9.682785392  -16.679443938  -19.407979369  -20.051861670  -19.832737320  -19.757568687  -20.388802256  -22.079841123  -19.547373568    0.662486692    8.095785931    2.191875144   -0.275521696   -1.185427851   -1.236904442   -0.381033984    0.812817640    1.001100250    0.678219354    0.412635730   -0.066009685   -1.277743808   -1.920855494   -0.958195321
        0.085850851   -2.224722268   -6.223507725   -6.256807669   -4.915255971   -4.431219466   -5.504453829   -9.426368047  -19.788179369  -56.134597911  -19.701912107    8.699076602    7.686763087    5.660531539    0.143250551   -2.364516874   -1.202584553    0.079955857    0.749489685    0.917546011    0.753951920    0.385340926   -1.255783123   -2.518974133    0.085850851
        2.684934891    3.084378560    1.472255763    5.671140537   10.820599424   12.701998160   11.844167036    8.195184228    0.527127730  -20.026544976  -13.959025437   19.979700831   17.620289214   17.746774943   10.429090267    0.183801880   -1.156839596   -0.010825088    0.686856096    1.115619177    1.425521770    1.719314556    1.829233650   -4.485862128    2.684934891
       30.539029777   10.637076625   19.035621002   18.364672787   14.038234679   11.138001262    9.395374112    8.302538790    8.108173588    8.582514135   19.791524629   43.082264004   15.012980026   22.163508141   17.700934075    5.651016394   -0.241887548    0.413875067    1.132915929    1.798803005    2.749288144    4.688951393    9.589346676    5.550269676   30.539029777
        0.114365136   21.218487476   19.545249516    9.954354632    5.877167357    4.099560338    3.109525565    2.320768765    2.231233971    7.640159682   17.577514832   15.065702562   39.016610775   15.065703567   17.577510191    7.640159201    2.231234854    2.320769131    3.109525193    4.099559518    5.877167024    9.954354695   19.545247764   21.218485076    0.114365136
       30.539041555    5.550270431    9.589344034    4.688949785    2.749288650    1.798804036    1.132915954    0.413873929   -0.241888622    5.651017671   17.700934936   22.163503980   15.012981204   43.082462115   19.791528240    8.582517022    8.108173693    8.302538614    9.395373595   11.138000688   14.038234555   18.364672821   19.035621338   10.637079268   30.539041555
        2.684938063   -4.485864012    1.829230479    1.719313822    1.425522836    1.115620337    0.686856249   -0.010826309   -1.156841251    0.183801992   10.429090381   17.746776451   17.620289224   19.979696135  -13.959027036  -20.026544478    0.527127633    8.195185357   11.844167206   12.701998414   10.820600158    5.671141151    1.472257246    3.084382328    2.684938063
        0.085851137   -2.518974314   -1.255782610    0.385341983    0.753952874    0.917546696    0.749489824    0.079955015   -1.202585919   -2.364517274    0.143251486    5.660533475    7.686762327    8.699073278  -19.701910114  -56.134599150  -19.788181690   -9.426366121   -5.504453676   -4.431220130   -4.915256399   -6.256806892   -6.223506472   -2.224721463    0.085851137
       -0.958197600   -1.920853928   -1.277742691   -0.066009456    0.412635659    0.678219184    1.001100019    0.812817054   -0.381035068   -1.236905162   -1.185427150   -0.275520711    2.191874416    8.095785122    0.662488029  -19.547373239  -22.079858905  -20.388804153  -19.757570481  -19.832736971  -20.051858831  -19.407976792  -16.679444102   -9.682789210   -0.958197600
        9.378392138    2.935047445   -0.300427044   -0.294266377   -0.012070001    0.047759628    0.139812271    0.831012973    0.833192667    0.096281526    0.009912453    0.412588531    2.300449917    8.247911669    8.173646079   -9.443643227  -20.500793459  -17.164773252  -12.686205425  -10.391124881   -9.370376886   -8.463778748   -6.240773988   -0.152392163    9.378392138
        5.673394168    6.633664940    1.417915449    0.233658226    0.031855826   -0.001358880   -0.000168595    0.140186420    1.010975436    0.766834891    0.710724277    1.150100442    3.113797811    9.345608590   11.761424774   -5.553341545  -19.797298938  -12.661861079   -8.885766870   -6.229392662   -4.377637093   -2.725432777   -0.605875263    1.943159232    5.673394168
        0.007709671    2.302753601    2.817838240    0.941869553    0.329259045    0.098324866   -0.010437812    0.046977866    0.671740307    0.908607761    1.122438510    1.817309141    4.102843949   11.084800030   12.636611988   -4.461553838  -19.916251709  -10.367330558   -6.214797390   -3.430525368   -1.177764667   -0.238806247    0.010344585    0.015756729    0.007709671
        0.000000000    0.004102631    1.624233047    1.809174295    0.829390540    0.340462434   -0.006947120   -0.035197994    0.413009491    0.748173925    1.438862303    2.772559944    5.855222921   13.978732884   10.811120794   -4.961390056  -20.190012542   -9.373279333   -4.361759085   -1.175272939   -0.057485114   -0.000613249    0.000001085    0.000000001    0.000000000
        0.000000000    0.000000000    0.011489042    1.435505711    1.825299987    0.973131269    0.235209666   -0.297523464   -0.020235391    0.393088753    1.752990828    4.723456506    9.878010155   18.291665390    5.694234920   -6.314144256  -19.546094548   -8.475823500   -2.716640786   -0.238896191   -0.000613766   -0.000000016   -0.000000000    0.000000000    0.000000000
        0.000000000    0.000000000    0.000000000    0.011480058    1.627632100    2.840737104    1.421733489   -0.304115574   -1.233197308   -1.268590485    1.801777549    9.621290112   19.445179607   18.913716035    1.420926870   -6.234745631  -16.754628288   -6.233480510   -0.594736604    0.010436745    0.000001089   -0.000000000    0.000000000    0.000000000    0.000000000
        0.000000000    0.000000000    0.000000000    0.000000000    0.004114753    2.311880888    6.616543783    2.955009165   -1.855103274   -2.346601811   -4.182368222    5.518169755   21.473813702   10.171862214    2.909258633   -2.118954458   -9.685116773   -0.104554078    1.967480677    0.015837356    0.000000001    0.000000000    0.000000000    0.000000000    0.000000000
        0.000000000    0.000000000    0.000000000    0.000000000    0.000000000    0.007742163    5.710590896    9.546637095   -0.835172564    0.351414070    3.175557952   28.995947862    0.078373160   28.995950440    3.175557774    0.351412708   -0.835172020    9.546637091    5.710591944    0.007742163    0.000000000    0.000000000    0.000000000    0.000000000    0.000000000
        0.000000000    0.000000000    0.000000000    0.000000000    0.000000001    0.019037778    2.869974038    3.730197680   -5.767364880   -1.663225340    2.993957430   10.128332838   21.200912974    3.583973024   -5.006694876   -2.770184224   -3.663291814   -0.777550614    3.932131950    1.800878033    0.003480133    0.000000000    0.000000000    0.000000000    0.000000000
        0.000000000    0.000000000    0.000000000    0.000000000    0.000000000    0.001764140    1.185781497    2.763928020   -1.920911186   -2.748603736    5.753504656   20.793301354   40.353191677   15.483937307   -6.704258810   -5.539462045   -1.948490303    3.871123264    8.958969410    4.370549034    0.029456339    0.000000002    0.000000000    0.000000000    0.000000000
        0.000000000    0.000000000    0.000000000    0.000000000    0.000000000    0.001314894    0.188301487   -0.830479920   -4.596399625   -6.277164909    1.516814316   10.950358083   27.501872930   21.562701645    4.870127769   -2.923073893   -1.796708888    1.081288128    3.832508938    5.120596850    2.272459267    0.018225445    0.000000000    0.000000000    0.000000000
        0.000000000    0.000000000    0.000000000    0.000000000   -0.000000443   -0.019783208   -0.887775909   -3.078695348   -7.103932557   -8.485348919   -0.277149359   11.068341571   16.141007666   10.465947074    4.606356275    0.384293616   -0.689125927    0.227546464    0.942331796    1.738447812    2.598747806    1.793124709    0.021513793    0.000000000    0.000000000
        0.000000002    0.000000000    0.000000000    0.000000038   -0.000640686   -0.180916359   -2.099035468   -4.537584762   -8.831713759   -9.281484753    0.318035097   11.398913381    9.442796219    5.199840336    2.898738125    1.093657105    0.169475913    0.229841840    0.244124529    0.621520586    1.170500118    2.156547153    1.816380065    0.018852420    0.000000002
        0.030078749    0.003221731    0.007052604   -0.001825625   -0.145351709   -1.181733263   -3.833430867   -6.043283829  -10.204680711   -9.616837148    1.203003152   10.563200094    6.248094990    2.981953176    1.787943945    1.038119488    0.576877286    0.383477000    0.041130959    0.239340811    0.567924833    1.238993471    2.704718991    2.319576029    0.030078749
        4.301531775    1.758056568    0.685602543   -0.432419273   -1.771538222   -3.660819969   -6.196977050   -8.631784818  -12.380274750  -10.365517256    1.271148994    9.504585498    4.613220148    1.768416564    0.935783306    0.596586193    0.597586095    0.581024458    0.014405120    0.022943896    0.217256090    0.632820521    1.728490311    4.973791168    4.301531775
        9.061178271    3.946478402   -0.409830154   -2.714158610   -4.223830843   -5.724077777   -8.184530070  -12.629442731  -17.482409451  -12.476755928   -0.302667164    8.306252939    3.451675684    0.759433795    0.006268522   -0.293183849   -0.119673157    0.736646525    0.142025246    0.014595195    0.033482339    0.217306693    0.887473551    3.727207006    9.061178271
        4.183691142   -0.757470213   -4.929203264   -7.202584977   -8.658715275   -9.746638184  -11.322185199  -15.497427275  -20.595979205  -17.324691536   -3.699827602    6.611905278    2.265864045   -0.437302618   -1.346194035   -1.826963770   -1.714185898   -0.446623285    0.740823745    0.589940363    0.399224465    0.257474395    0.264232277    1.196195211    4.183691142
       -1.717539725   -3.568107151   -7.254910672   -8.867913797   -9.237045509   -9.389603229  -10.219303505  -14.789260942  -59.514771340  -18.618847780  -11.919810090    4.101009165    2.706125708    0.633908289   -2.143446475   -3.689556958   -3.309573919   -1.745450005   -0.086206415    0.677415081    0.667963293    0.251405292   -0.588264565   -1.603637090   -1.717539725
       -5.149086744   -2.742503352   -1.608714537   -1.173328044    0.077454220    1.115679690    1.070303662   -1.575095947  -10.300383082   -8.835502977  -19.249924415    2.786261863    4.768962630    5.767759635    4.307722640   -2.191737115   -3.698269938   -1.850975990   -0.311647403    0.555318406    0.933033192    0.879771247    0.203715860   -2.713739780   -5.149086744
       -7.897581173   -5.811156762    2.466351400    8.086128782   10.261688770   10.176468057    9.471885889    8.722712276    7.769213374   10.007657377   12.890798095   19.102671736   12.881820310   13.501767227   11.177816183    4.485306049   -2.073015926   -1.314968608    0.038917459    0.984894306    1.859030988    2.986271677    4.728182228    4.615082537   -7.897581173
       15.702018855    3.822906737   10.928759931   10.003426518    7.297948977    5.645400567    4.804203615    4.445886162    4.483622395    8.560649378   18.060389021   28.004337005   14.998201858   10.162798949   13.577213110    5.759989810    0.687158927   -0.311605621    0.886066285    1.939708394    3.260577539    5.600311054   10.995847207   22.137664439   15.702018855
       39.842859259   22.133745233   13.639745207    5.758763162    3.299263076    2.396330923    1.976865858    1.732417548    1.604568406    4.794639141   15.688546161   30.191594724   21.556105894   15.000103451   13.118755114    4.427823117    2.586864792    1.870997819    3.021739386    4.278866848    6.060822437    9.364407704   16.051171273   27.160464281   39.842859259
       20.537795942   11.223125187   12.248952499    4.176369665    2.077401257    1.518024411    1.310369637    1.241997016    1.235414953    2.347317666   11.266884206   24.587003089   30.182234033   28.625646003   20.457996110    2.647021161    3.867209734    5.885963574    7.693228541    9.023022565   10.368810044   11.527543789   11.120631954   10.539368091   20.537795942
        6.465456321    3.307810557    2.561898036    3.635069916    1.659273063    1.197930871    1.223827041    1.390374605    1.499017379    1.607304929    3.862541563   11.356339206   16.027394613   18.155153254   12.046893140  -20.410808564  -11.752138797   -3.009063467    0.615201518    2.033449268    1.771143430    0.447961763   -0.346821867    1.644977643    6.465456321
       -2.842451305   -1.860943233   -1.454597878    0.949623546    1.238255446    1.013700517    1.390415265    1.955182558    2.118556056    1.862258998    1.620985072    2.421482487    5.150836117    8.122226827    8.814738846   -9.169800200  -19.464226997  -16.838982216  -12.145349090  -10.416885079   -9.861402350   -9.335538115   -8.345314599   -6.291247210   -2.842451305
       -1.742024696   -5.612915114   -5.265355722   -1.883352933    0.062117812    0.463267839    0.819451388    2.029203903    3.093583198    2.218149444    1.480269709    1.284577662    1.901224518    3.740007426    6.456274865   -9.062047226  -56.089623392  -20.821925889  -17.466818645  -11.854471488   -9.600261817   -8.336270287   -6.974133821   -4.637684736   -1.742024696
        2.906615714    3.634861075   -1.716747195   -1.485094199   -0.678942140   -0.087518986    0.012784264    0.195136201    2.064461327    2.053865466    1.335726466    1.281347058    1.931253045    3.906486214    8.078947990   -0.649145036  -14.803697958  -15.508035080  -13.221201558   -8.700661008   -6.059364734   -4.686788109   -3.208925529   -0.764634313    2.906615714
        1.220644062    2.855691239    2.070728757   -0.036862136   -0.274613665   -0.217325644   -0.062442990    0.012822343    0.830027109    1.498577054    1.183556681    1.370724613    2.207563241    4.542277763    9.141405939    1.879427524  -10.405289369  -10.931726885   -8.326245858   -6.106193171   -3.804801381   -2.170397622   -0.900412754    0.215055677    1.220644062
        0.001893825    0.018586341    1.319436596    1.152362661    0.321474548   -0.026531995   -0.262535657   -0.093119318    0.474058516    1.108166340    1.096051709    1.573600510    2.675187485    5.484076614    9.974147599    1.697041980   -9.684389080   -9.150213301   -5.761763762   -3.647315319   -1.155515432   -0.178688404   -0.019491826    0.001366533    0.001893825
        0.000000000    0.000000001    0.010539124    0.955900759    1.046456094    0.363843760   -0.276766063   -0.680802151    0.115220129    1.270699554    1.364477009    2.094003660    3.562625132    7.092621149   10.275729935    0.171490269   -9.267969475   -8.039396248   -4.306677101   -1.818729489   -0.140966096   -0.000642662   -0.000000494    0.000000000    0.000000000
        0.000000000    0.000000000    0.000000000    0.011743093    0.977628091    1.221624311   -0.012732993   -1.525920459   -1.876348024    1.001802296    3.424491689    4.340804136    5.970473378    9.798584397    8.200916645   -1.327488913   -8.670923244   -6.937177040   -2.816979415   -0.443459379   -0.001113283    0.000000051    0.000000000    0.000000000    0.000000000
        0.000000000    0.000000000    0.000000000    0.000000000    0.010880373    1.343476926    2.076688493   -1.735768906   -5.377904837   -1.378092665    2.989199477   12.635492302   13.498832274   10.717186883    2.561701381   -1.646838534   -7.233940382   -4.944188445   -0.406175031    0.704676581    0.007603840    0.000000000    0.000000000    0.000000000    0.000000000
        0.000000000    0.000000000    0.000000000    0.000000000    0.000000001    0.019037778    2.869974038    3.730197680   -5.767364880   -1.663225340    2.993957430   10.128332838   21.200912974    3.583973024   -5.006694876   -2.770184224   -3.663291814   -0.777550614    3.932131950    1.800878033    0.003480133    0.000000000    0.000000000    0.000000000    0.000000000
        0.000000000    0.000000000    0.000000000   -0.000000000    0.000001534    0.033770798    0.602611707   -2.625955682  -12.730515726   -5.579251564    1.484422588   20.948547297   20.907699349    8.875397091    0.840138517   -1.711611666   -1.944116852   -1.913221468   -0.373029628    1.279707075    1.066543842    0.008254573    0.000000000    0.000000000    0.000000000
        0.000000000    0.000000000    0.000000000    0.000000000   -0.000000000    0.001902137    0.463479868    0.381258988   -3.120546454   -5.500498214    1.530068295   11.160917749   28.291260684   21.290509402    4.162248190   -3.313428134   -2.216140524   -0.641840710    1.574830984    3.506689367    1.833189609    0.015371552    0.000000000    0.000000000    0.000000000
        0.000000000    0.000000000    0.000000000    0.000000000    0.000000000   -0.000880935    0.032776421   -0.107367231   -1.380219088   -3.274556700   -0.907396442    9.360034941   21.890380956   22.969639578   12.729990425    1.800294904   -1.896585594   -0.422100096    3.943662513    5.675707261    3.580785941    0.173774323    0.000017172    0.000000000    0.000000000
        0.000000000    0.000000000    0.000000000    0.000000000    0.000000000   -0.004318590   -0.458398215   -1.100466902   -1.972186855   -3.234544899   -2.441702407    5.218347946   12.950166790   13.806516366    9.179077304    4.030858368   -0.055288558   -0.336549673    1.511587014    2.772516131    3.339831523    2.219846716    0.070739462    0.000002245    0.000000000
        0.000015106    0.000000000    0.000000000    0.000000000    0.000001146   -0.019849890   -1.039504077   -2.134179894   -2.834125838   -3.741136175   -2.641434401    3.873767581    7.900364606    7.275732431    5.153572089    2.557840622    0.540556215    0.243969198    0.707072224    0.940089798    1.486333382    2.373304750    1.944682266    0.069492259    0.000015106
        0.171145335    0.014632052    0.008357067    0.007362787   -0.001394599   -0.239173916   -2.162151376   -3.525430001   -3.916728511   -4.427307754   -2.645759136    3.712041646    5.318338755    4.041880902    2.896036110    1.687557856    0.730045811    0.821030471    0.687017704    0.349243738    0.702722779    1.341848583    2.380719808    2.225506178    0.171145335
        3.592268894    1.823605214    1.063428909    0.404449668   -0.390892658   -1.799486865   -4.415733555   -6.135880777   -6.013753819   -5.610789975   -2.728961403    3.545816850    3.866830155    2.374350565    1.518618531    0.924185075    0.646534400    1.086037018    0.875369218    0.058991827    0.250099834    0.704946202    1.505077316    3.380143840    3.592268894
        5.541892894    3.442716795    1.265259690   -0.133310455   -1.384171035   -2.984199235   -5.794976646  -10.462378289  -11.902032779   -8.729777079   -2.604690972    3.122841521    2.855974243    1.266258574    0.471760617    0.054898747   -0.007632574    0.743095929    1.241468987    0.098247763    0.054064078    0.317005351    0.939288572    2.757884388    5.541892894
        3.912421569    1.612449362   -0.350589408   -1.449900727   -2.353032113   -3.400482666   -5.345101662  -10.961441266  -19.462712624  -12.386030131   20.663155630    3.641451158    1.957707387    0.226801205   -0.542854389   -0.950115657   -1.098659840   -0.548023091    1.133828571    1.238868991    0.852666105    0.651069105    0.711467277    1.501815459    3.912421569
       -0.366009574   -0.539288350   -1.880080817   -2.698776876   -3.287214393   -3.949130239   -5.092419887   -8.312230533  -14.987938743   -9.446589778   -3.455166805    3.034973859    2.146837086    0.174221773   -1.253854566   -1.854713527   -2.048663198   -1.659245500   -0.434227115    0.791508998    1.064577812    0.803232396    0.300958454   -0.288922422   -0.366009574
       -1.843683219   -2.063621881   -1.932802725   -2.430366823   -2.448391630   -2.365905234   -2.535114681   -5.066418744 -109.712186137   -8.717046220    2.234584145    3.806070947    2.218503871    1.856549297    1.009360943   -1.608575335   -2.414611185   -2.030919043   -1.049368444   -0.006360777    0.637219595    0.782276934    0.666216068    0.013046351   -1.843683219
        1.874407780   -3.095724775   -1.849356910    0.759454799    2.353172968    3.294915190    3.714719486    3.538493432    0.132754990    4.818210543    9.429811221    7.862295898    4.499026952    5.226744654    5.428768368    2.257894876   -1.647778437   -1.908688616   -0.971308758    0.044632099    0.919375809    1.704340031    2.552518762    3.937909664    1.874407780
       12.528871263    4.165503836    0.626592362    2.969203248    3.982380801    3.974767677    3.925931260    4.160350439    4.326404098    5.802461888   11.493999335   17.813648857   17.181382470   13.606575088   11.588541799    5.489811459    1.030145852   -1.333295370   -0.583829881    0.462098968    1.533586680    2.953388221    5.210170905    9.108289228   12.528871263
       23.461630364   21.679938086    8.704669408    3.639985393    2.625640823    2.342170837    2.383161381    2.660731765    3.062960273    4.199812031    9.624060503   19.701976121   30.201776892   22.397227273   13.621379367    5.236713871    1.871583749    0.133881974    0.187174359    1.257261280    2.429994317    4.156409758    7.396826152   13.987352844   23.461630364
       22.146646344   27.684829338   20.405347585    6.356921790    2.454273037    1.688907788    1.699133463    2.000591163    2.465431626    3.171287115    6.948577518   16.893339615   29.878316506   30.170270995   17.218165675    4.438611895    2.218601052    2.197455544    1.992389984    2.853359946    3.931302943    5.428136798    7.998409219   13.109713399   22.146646344
        9.095007130   10.393658134   20.468928497   11.681890971    3.248089659    1.482347984    1.422462832    1.828091003    2.346816386    2.810645184    3.722615150    9.299117438   16.942603014   19.707809405   17.967165617    7.876959265    3.793498905    3.255406844    4.177949025    3.191363962    3.616967122    3.779067992    3.883342105    5.154888506    9.095007130
       -0.912766032    1.544792309    1.487601588    9.036267619    4.099080713    1.541419381    1.486556994    2.125489491    2.742729509    2.963533217    2.993868830    3.737777977    7.002147022    9.647073690   11.759025366    9.767724483    1.950887319   -3.264596689   20.463769176   -2.709495861   -2.751997409   -2.690706379   -2.701150001   -2.495023658   -0.912766032
       -3.290214193   -5.512824009   -5.533427302   -1.096056374    2.351122936    1.843941635    1.991413020    3.241331186    4.095558165    3.575678758    2.934180233    2.809428809    3.200208122    4.212491175    5.957653104    4.739796208   -8.868227403   -9.310224397  -12.553082946   -8.794401045   -5.670502406   -4.480962097   -3.774294421   -3.252666253   -3.290214193
       -1.380767797   -3.104590636  -12.384354005   -7.220755116   -2.096420941    0.355256008    0.894940358    2.012197684    4.665047884    3.996511953    2.698728008    2.333921578    2.444897252    3.016193465    4.387020149    0.437124498 -107.130317178  -14.796219534  -19.429389273  -11.841819545   -6.013041838   -3.932118724   -2.828265620   -1.951757084   -1.380767797
       -0.106521547    0.447552319   -2.482415274   -4.507763576   -2.395019097   -1.009248638   -0.133143360    0.086432737    1.947257535    3.146674902    2.122569302    1.811499456    1.965214097    2.642770349    4.206704856    3.621757629   -5.045385410   -8.278637362  -11.085931368  -10.484609307   -6.141797076   -3.539941522   -2.133266673   -1.096039243   -0.106521547
        0.040263833    0.487778769    0.605694560   -0.748696692   -0.969572858   -0.763382402   -0.628913522   -0.122756304    0.864790091    1.995292871    1.568839824    1.433945097    1.706728344    2.473055943    4.053410634    3.762250066   -2.523244679   -5.105373326   -5.421561448   -5.809348615   -4.398522940   -2.157252494   -1.039448069   -0.459230754    0.040263833
       -0.000804109    0.002046259    0.032889259    0.216805727   -0.081260402   -0.415707787   -0.825997440   -0.960644122    0.366276023    1.904563360    1.706607549    1.498654933    1.730491075    2.509672961    4.074899038    3.270133130   -2.339762392   -3.964367901   -3.444831667   -2.987111512   -1.787217041   -0.238918266   -0.019746140   -0.004144646   -0.000804109
        0.000000000   -0.000000000    0.000001489    0.007887429    0.168931461   -0.151303511   -1.076403622   -2.323350328   -2.035099752    2.356862459    4.132676239    3.028880771    2.411631924    2.789462972    3.947925719    2.290940046   -2.406118667   -3.305583849   -2.375012290   -1.369991682   -0.378285078   -0.001406483    0.000001155    0.000000000    0.000000000
        0.000000000    0.000000000   -0.000000000    0.000000115    0.008451987    0.221382382   -0.746031779   -4.385231897   -7.244036314   -1.141332280    8.660620807   11.053209647    6.250363478    3.819115890    2.972832480    0.842530150   -2.382038616   -2.713566197   -1.456984559   -0.112020897    0.413920964    0.007158663    0.000000000    0.000000000    0.000000000
        0.000000000    0.000000000    0.000000000   -0.000000000    0.000001534    0.033770798    0.602611707   -2.625955682  -12.730515726   -5.579251564    1.484422588   20.948547297   20.907699349    8.875397091    0.840138517   -1.711611666   -1.944116852   -1.913221468   -0.373029628    1.279707075    1.066543842    0.008254573    0.000000000    0.000000000    0.000000000
        0.000000000    0.000000000    0.000000000   -0.000000024   -0.000650785   -0.166919409   -1.416171713   -5.346831497  -15.692182934   -5.738070330    5.866834773   19.781550806   10.494542920    4.516801520    1.238123525    0.041252288   -0.211644308   -0.886918117   -0.566066740    0.029704440    0.753366903    0.860532249    0.008277522    0.000000000    0.000000000
        0.000000000    0.000000000    0.000000000    0.000000000   -0.000000595   -0.016716105   -0.411822276   -1.525035599   -5.112243370   -7.415984299   -0.261296569   11.514725347   16.780839088   10.335272408    4.019705567    0.078695382   -0.835506782   -0.535904879   -0.175498557    0.575546003    1.490856441    1.273810486    0.016408030    0.000000000    0.000000000
        0.000000000    0.000000000    0.000000000    0.000000000   -0.000000000   -0.004135381   -0.286935049   -0.580893006   -1.425865545   -2.851029661   -2.378179463    5.163003175   12.958345331   13.670307384    8.917575646    4.100204637    0.283407577   -0.653118344    0.218814662    1.325424127    2.331494855    1.844846478    0.061637640    0.000001997    0.000000000